    1    1     1    1    9.810295192888396e-02
    1    1     1    2    0.000000000000000e+00
    1    1     1    3    0.000000000000000e+00
    1    1     2    1    1.788302319238295e-03
    1    1     2    2    0.000000000000000e+00
    1    1     2    3    0.000000000000000e+00
    1    1     3    1   -1.294297620657385e-02
    1    1     3    2    0.000000000000000e+00
    1    1     3    3   -1.321776996240631e-02
    1    1     4    1   -1.294297620657385e-02
    1    1     4    2   -1.321776996240631e-02
    1    1     4    3    0.000000000000000e+00
    1    1     5    1    2.795391854723257e-04
    1    1     5    2    0.000000000000000e+00
    1    1     5    3    0.000000000000000e+00
    1    1     6    1   -4.149354613672993e-03
    1    1     6    2    0.000000000000000e+00
    1    1     6    3    0.000000000000000e+00
    1    1     7    1    2.795391854723257e-04
    1    1     7    2    0.000000000000000e+00
    1    1     7    3    0.000000000000000e+00
    1    1     8    1    1.788302319238295e-03
    1    1     8    2    0.000000000000000e+00
    1    1     8    3    0.000000000000000e+00
    1    1     9    1    8.697189786151739e-04
    1    1     9    2    0.000000000000000e+00
    1    1     9    3    0.000000000000000e+00
    1    1    10    1    1.788302319238295e-03
    1    1    10    2    0.000000000000000e+00
    1    1    10    3    0.000000000000000e+00
    1    1    11    1   -1.294297620657385e-02
    1    1    11    2    0.000000000000000e+00
    1    1    11    3    1.321776996240631e-02
    1    1    12    1   -1.294297620657385e-02
    1    1    12    2    0.000000000000000e+00
    1    1    12    3    1.321776996240631e-02
    1    1    13    1   -6.626904649119987e-05
    1    1    13    2    0.000000000000000e+00
    1    1    13    3    4.206335256757095e-04
    1    1    14    1   -6.626904649119987e-05
    1    1    14    2    4.206335256757095e-04
    1    1    14    3    0.000000000000000e+00
    1    1    15    1   -1.294297620657385e-02
    1    1    15    2    1.321776996240631e-02
    1    1    15    3    0.000000000000000e+00
    1    1    16    1   -1.294297620657385e-02
    1    1    16    2    1.321776996240631e-02
    1    1    16    3    0.000000000000000e+00
    1    1    17    1   -4.109845236144178e-04
    1    1    17    2    0.000000000000000e+00
    1    1    17    3    0.000000000000000e+00
    1    1    18    1   -9.252033878548304e-04
    1    1    18    2    0.000000000000000e+00
    1    1    18    3    0.000000000000000e+00
    1    1    19    1   -9.252033878548304e-04
    1    1    19    2    0.000000000000000e+00
    1    1    19    3    0.000000000000000e+00
    1    1    20    1    1.788302319238295e-03
    1    1    20    2    0.000000000000000e+00
    1    1    20    3    0.000000000000000e+00
    1    1    21    1    8.697189786151739e-04
    1    1    21    2    0.000000000000000e+00
    1    1    21    3    0.000000000000000e+00
    1    1    22    1    8.697189786151739e-04
    1    1    22    2    0.000000000000000e+00
    1    1    22    3    0.000000000000000e+00
    1    1    23    1   -6.626904649119987e-05
    1    1    23    2    0.000000000000000e+00
    1    1    23    3   -4.206335256757095e-04
    1    1    24    1   -1.294297620657385e-02
    1    1    24    2    0.000000000000000e+00
    1    1    24    3   -1.321776996240631e-02
    1    1    25    1   -6.626904649119987e-05
    1    1    25    2    0.000000000000000e+00
    1    1    25    3   -4.206335256757095e-04
    1    1    26    1   -6.626904649119987e-05
    1    1    26    2   -4.206335256757095e-04
    1    1    26    3    0.000000000000000e+00
    1    1    27    1   -6.626904649119987e-05
    1    1    27    2   -4.206335256757095e-04
    1    1    27    3    0.000000000000000e+00
    1    1    28    1   -1.294297620657385e-02
    1    1    28    2   -1.321776996240631e-02
    1    1    28    3    0.000000000000000e+00
    1    1    29    1    1.190592446274967e-03
    1    1    29    2    0.000000000000000e+00
    1    1    29    3    0.000000000000000e+00
    1    1    30    1    8.697189786151739e-04
    1    1    30    2    0.000000000000000e+00
    1    1    30    3    0.000000000000000e+00
    1    1    31    1   -6.626904649119987e-05
    1    1    31    2    0.000000000000000e+00
    1    1    31    3    4.206335256757095e-04
    1    1    32    1   -6.626904649119987e-05
    1    1    32    2    4.206335256757095e-04
    1    1    32    3    0.000000000000000e+00
    1    2     1    1    0.000000000000000e+00
    1    2     1    2    9.810295192888396e-02
    1    2     1    3    0.000000000000000e+00
    1    2     2    1    0.000000000000000e+00
    1    2     2    2   -1.294297620657385e-02
    1    2     2    3   -1.321776996240631e-02
    1    2     3    1    0.000000000000000e+00
    1    2     3    2    1.788302319238295e-03
    1    2     3    3    0.000000000000000e+00
    1    2     4    1   -1.321776996240631e-02
    1    2     4    2   -1.294297620657385e-02
    1    2     4    3    0.000000000000000e+00
    1    2     5    1    0.000000000000000e+00
    1    2     5    2    2.795391854723257e-04
    1    2     5    3    0.000000000000000e+00
    1    2     6    1    0.000000000000000e+00
    1    2     6    2    2.795391854723257e-04
    1    2     6    3    0.000000000000000e+00
    1    2     7    1    0.000000000000000e+00
    1    2     7    2   -4.149354613672993e-03
    1    2     7    3    0.000000000000000e+00
    1    2     8    1    0.000000000000000e+00
    1    2     8    2   -1.294297620657385e-02
    1    2     8    3    1.321776996240631e-02
    1    2     9    1    0.000000000000000e+00
    1    2     9    2   -6.626904649119987e-05
    1    2     9    3    4.206335256757095e-04
    1    2    10    1    0.000000000000000e+00
    1    2    10    2   -1.294297620657385e-02
    1    2    10    3    1.321776996240631e-02
    1    2    11    1    0.000000000000000e+00
    1    2    11    2    1.788302319238295e-03
    1    2    11    3    0.000000000000000e+00
    1    2    12    1    0.000000000000000e+00
    1    2    12    2    1.788302319238295e-03
    1    2    12    3    0.000000000000000e+00
    1    2    13    1    0.000000000000000e+00
    1    2    13    2    8.697189786151739e-04
    1    2    13    3    0.000000000000000e+00
    1    2    14    1    4.206335256757095e-04
    1    2    14    2   -6.626904649119987e-05
    1    2    14    3    0.000000000000000e+00
    1    2    15    1    1.321776996240631e-02
    1    2    15    2   -1.294297620657385e-02
    1    2    15    3    0.000000000000000e+00
    1    2    16    1    1.321776996240631e-02
    1    2    16    2   -1.294297620657385e-02
    1    2    16    3    0.000000000000000e+00
    1    2    17    1    0.000000000000000e+00
    1    2    17    2   -9.252033878548304e-04
    1    2    17    3    0.000000000000000e+00
    1    2    18    1    0.000000000000000e+00
    1    2    18    2   -4.109845236144178e-04
    1    2    18    3    0.000000000000000e+00
    1    2    19    1    0.000000000000000e+00
    1    2    19    2   -9.252033878548304e-04
    1    2    19    3    0.000000000000000e+00
    1    2    20    1    0.000000000000000e+00
    1    2    20    2   -1.294297620657385e-02
    1    2    20    3   -1.321776996240631e-02
    1    2    21    1    0.000000000000000e+00
    1    2    21    2   -6.626904649119987e-05
    1    2    21    3   -4.206335256757095e-04
    1    2    22    1    0.000000000000000e+00
    1    2    22    2   -6.626904649119987e-05
    1    2    22    3   -4.206335256757095e-04
    1    2    23    1    0.000000000000000e+00
    1    2    23    2    8.697189786151739e-04
    1    2    23    3    0.000000000000000e+00
    1    2    24    1    0.000000000000000e+00
    1    2    24    2    1.788302319238295e-03
    1    2    24    3    0.000000000000000e+00
    1    2    25    1    0.000000000000000e+00
    1    2    25    2    8.697189786151739e-04
    1    2    25    3    0.000000000000000e+00
    1    2    26    1   -4.206335256757095e-04
    1    2    26    2   -6.626904649119987e-05
    1    2    26    3    0.000000000000000e+00
    1    2    27    1   -4.206335256757095e-04
    1    2    27    2   -6.626904649119987e-05
    1    2    27    3    0.000000000000000e+00
    1    2    28    1   -1.321776996240631e-02
    1    2    28    2   -1.294297620657385e-02
    1    2    28    3    0.000000000000000e+00
    1    2    29    1    0.000000000000000e+00
    1    2    29    2    1.190592446274967e-03
    1    2    29    3    0.000000000000000e+00
    1    2    30    1    0.000000000000000e+00
    1    2    30    2   -6.626904649119987e-05
    1    2    30    3    4.206335256757095e-04
    1    2    31    1    0.000000000000000e+00
    1    2    31    2    8.697189786151739e-04
    1    2    31    3    0.000000000000000e+00
    1    2    32    1    4.206335256757095e-04
    1    2    32    2   -6.626904649119987e-05
    1    2    32    3    0.000000000000000e+00
    1    3     1    1    0.000000000000000e+00
    1    3     1    2    0.000000000000000e+00
    1    3     1    3    9.810295192888396e-02
    1    3     2    1    0.000000000000000e+00
    1    3     2    2   -1.321776996240631e-02
    1    3     2    3   -1.294297620657385e-02
    1    3     3    1   -1.321776996240631e-02
    1    3     3    2    0.000000000000000e+00
    1    3     3    3   -1.294297620657385e-02
    1    3     4    1    0.000000000000000e+00
    1    3     4    2    0.000000000000000e+00
    1    3     4    3    1.788302319238295e-03
    1    3     5    1    0.000000000000000e+00
    1    3     5    2    0.000000000000000e+00
    1    3     5    3   -4.149354613672993e-03
    1    3     6    1    0.000000000000000e+00
    1    3     6    2    0.000000000000000e+00
    1    3     6    3    2.795391854723257e-04
    1    3     7    1    0.000000000000000e+00
    1    3     7    2    0.000000000000000e+00
    1    3     7    3    2.795391854723257e-04
    1    3     8    1    0.000000000000000e+00
    1    3     8    2    1.321776996240631e-02
    1    3     8    3   -1.294297620657385e-02
    1    3     9    1    0.000000000000000e+00
    1    3     9    2    4.206335256757095e-04
    1    3     9    3   -6.626904649119987e-05
    1    3    10    1    0.000000000000000e+00
    1    3    10    2    1.321776996240631e-02
    1    3    10    3   -1.294297620657385e-02
    1    3    11    1    1.321776996240631e-02
    1    3    11    2    0.000000000000000e+00
    1    3    11    3   -1.294297620657385e-02
    1    3    12    1    1.321776996240631e-02
    1    3    12    2    0.000000000000000e+00
    1    3    12    3   -1.294297620657385e-02
    1    3    13    1    4.206335256757095e-04
    1    3    13    2    0.000000000000000e+00
    1    3    13    3   -6.626904649119987e-05
    1    3    14    1    0.000000000000000e+00
    1    3    14    2    0.000000000000000e+00
    1    3    14    3    8.697189786151739e-04
    1    3    15    1    0.000000000000000e+00
    1    3    15    2    0.000000000000000e+00
    1    3    15    3    1.788302319238295e-03
    1    3    16    1    0.000000000000000e+00
    1    3    16    2    0.000000000000000e+00
    1    3    16    3    1.788302319238295e-03
    1    3    17    1    0.000000000000000e+00
    1    3    17    2    0.000000000000000e+00
    1    3    17    3   -9.252033878548304e-04
    1    3    18    1    0.000000000000000e+00
    1    3    18    2    0.000000000000000e+00
    1    3    18    3   -9.252033878548304e-04
    1    3    19    1    0.000000000000000e+00
    1    3    19    2    0.000000000000000e+00
    1    3    19    3   -4.109845236144178e-04
    1    3    20    1    0.000000000000000e+00
    1    3    20    2   -1.321776996240631e-02
    1    3    20    3   -1.294297620657385e-02
    1    3    21    1    0.000000000000000e+00
    1    3    21    2   -4.206335256757095e-04
    1    3    21    3   -6.626904649119987e-05
    1    3    22    1    0.000000000000000e+00
    1    3    22    2   -4.206335256757095e-04
    1    3    22    3   -6.626904649119987e-05
    1    3    23    1   -4.206335256757095e-04
    1    3    23    2    0.000000000000000e+00
    1    3    23    3   -6.626904649119987e-05
    1    3    24    1   -1.321776996240631e-02
    1    3    24    2    0.000000000000000e+00
    1    3    24    3   -1.294297620657385e-02
    1    3    25    1   -4.206335256757095e-04
    1    3    25    2    0.000000000000000e+00
    1    3    25    3   -6.626904649119987e-05
    1    3    26    1    0.000000000000000e+00
    1    3    26    2    0.000000000000000e+00
    1    3    26    3    8.697189786151739e-04
    1    3    27    1    0.000000000000000e+00
    1    3    27    2    0.000000000000000e+00
    1    3    27    3    8.697189786151739e-04
    1    3    28    1    0.000000000000000e+00
    1    3    28    2    0.000000000000000e+00
    1    3    28    3    1.788302319238295e-03
    1    3    29    1    0.000000000000000e+00
    1    3    29    2    0.000000000000000e+00
    1    3    29    3    1.190592446274967e-03
    1    3    30    1    0.000000000000000e+00
    1    3    30    2    4.206335256757095e-04
    1    3    30    3   -6.626904649119987e-05
    1    3    31    1    4.206335256757095e-04
    1    3    31    2    0.000000000000000e+00
    1    3    31    3   -6.626904649119987e-05
    1    3    32    1    0.000000000000000e+00
    1    3    32    2    0.000000000000000e+00
    1    3    32    3    8.697189786151739e-04
    2    1     1    1    1.788302319238295e-03
    2    1     1    2    0.000000000000000e+00
    2    1     1    3    0.000000000000000e+00
    2    1     2    1    9.810295192888396e-02
    2    1     2    2    0.000000000000000e+00
    2    1     2    3    0.000000000000000e+00
    2    1     3    1   -1.294297620657385e-02
    2    1     3    2    1.321776996240631e-02
    2    1     3    3    0.000000000000000e+00
    2    1     4    1   -1.294297620657385e-02
    2    1     4    2    0.000000000000000e+00
    2    1     4    3    1.321776996240631e-02
    2    1     5    1    1.788302319238295e-03
    2    1     5    2    0.000000000000000e+00
    2    1     5    3    0.000000000000000e+00
    2    1     6    1    8.697189786151739e-04
    2    1     6    2    0.000000000000000e+00
    2    1     6    3    0.000000000000000e+00
    2    1     7    1    1.788302319238295e-03
    2    1     7    2    0.000000000000000e+00
    2    1     7    3    0.000000000000000e+00
    2    1     8    1    2.795391854723257e-04
    2    1     8    2    0.000000000000000e+00
    2    1     8    3    0.000000000000000e+00
    2    1     9    1   -4.149354613672993e-03
    2    1     9    2    0.000000000000000e+00
    2    1     9    3    0.000000000000000e+00
    2    1    10    1    2.795391854723257e-04
    2    1    10    2    0.000000000000000e+00
    2    1    10    3    0.000000000000000e+00
    2    1    11    1   -6.626904649119987e-05
    2    1    11    2   -4.206335256757095e-04
    2    1    11    3    0.000000000000000e+00
    2    1    12    1   -1.294297620657385e-02
    2    1    12    2   -1.321776996240631e-02
    2    1    12    3    0.000000000000000e+00
    2    1    13    1   -1.294297620657385e-02
    2    1    13    2   -1.321776996240631e-02
    2    1    13    3    0.000000000000000e+00
    2    1    14    1   -1.294297620657385e-02
    2    1    14    2    0.000000000000000e+00
    2    1    14    3   -1.321776996240631e-02
    2    1    15    1   -1.294297620657385e-02
    2    1    15    2    0.000000000000000e+00
    2    1    15    3   -1.321776996240631e-02
    2    1    16    1   -6.626904649119987e-05
    2    1    16    2    0.000000000000000e+00
    2    1    16    3   -4.206335256757095e-04
    2    1    17    1    1.788302319238295e-03
    2    1    17    2    0.000000000000000e+00
    2    1    17    3    0.000000000000000e+00
    2    1    18    1    8.697189786151739e-04
    2    1    18    2    0.000000000000000e+00
    2    1    18    3    0.000000000000000e+00
    2    1    19    1    8.697189786151739e-04
    2    1    19    2    0.000000000000000e+00
    2    1    19    3    0.000000000000000e+00
    2    1    20    1   -4.109845236144178e-04
    2    1    20    2    0.000000000000000e+00
    2    1    20    3    0.000000000000000e+00
    2    1    21    1   -9.252033878548304e-04
    2    1    21    2    0.000000000000000e+00
    2    1    21    3    0.000000000000000e+00
    2    1    22    1   -9.252033878548304e-04
    2    1    22    2    0.000000000000000e+00
    2    1    22    3    0.000000000000000e+00
    2    1    23    1   -6.626904649119987e-05
    2    1    23    2    4.206335256757095e-04
    2    1    23    3    0.000000000000000e+00
    2    1    24    1   -6.626904649119987e-05
    2    1    24    2    4.206335256757095e-04
    2    1    24    3    0.000000000000000e+00
    2    1    25    1   -1.294297620657385e-02
    2    1    25    2    1.321776996240631e-02
    2    1    25    3    0.000000000000000e+00
    2    1    26    1   -6.626904649119987e-05
    2    1    26    2    0.000000000000000e+00
    2    1    26    3    4.206335256757095e-04
    2    1    27    1   -1.294297620657385e-02
    2    1    27    2    0.000000000000000e+00
    2    1    27    3    1.321776996240631e-02
    2    1    28    1   -6.626904649119987e-05
    2    1    28    2    0.000000000000000e+00
    2    1    28    3    4.206335256757095e-04
    2    1    29    1    8.697189786151739e-04
    2    1    29    2    0.000000000000000e+00
    2    1    29    3    0.000000000000000e+00
    2    1    30    1    1.190592446274967e-03
    2    1    30    2    0.000000000000000e+00
    2    1    30    3    0.000000000000000e+00
    2    1    31    1   -6.626904649119987e-05
    2    1    31    2   -4.206335256757095e-04
    2    1    31    3    0.000000000000000e+00
    2    1    32    1   -6.626904649119987e-05
    2    1    32    2    0.000000000000000e+00
    2    1    32    3   -4.206335256757095e-04
    2    2     1    1    0.000000000000000e+00
    2    2     1    2   -1.294297620657385e-02
    2    2     1    3   -1.321776996240631e-02
    2    2     2    1    0.000000000000000e+00
    2    2     2    2    9.810295192888396e-02
    2    2     2    3    0.000000000000000e+00
    2    2     3    1    1.321776996240631e-02
    2    2     3    2   -1.294297620657385e-02
    2    2     3    3    0.000000000000000e+00
    2    2     4    1    0.000000000000000e+00
    2    2     4    2    1.788302319238295e-03
    2    2     4    3    0.000000000000000e+00
    2    2     5    1    0.000000000000000e+00
    2    2     5    2   -1.294297620657385e-02
    2    2     5    3    1.321776996240631e-02
    2    2     6    1    0.000000000000000e+00
    2    2     6    2   -6.626904649119987e-05
    2    2     6    3    4.206335256757095e-04
    2    2     7    1    0.000000000000000e+00
    2    2     7    2   -1.294297620657385e-02
    2    2     7    3    1.321776996240631e-02
    2    2     8    1    0.000000000000000e+00
    2    2     8    2    2.795391854723257e-04
    2    2     8    3    0.000000000000000e+00
    2    2     9    1    0.000000000000000e+00
    2    2     9    2    2.795391854723257e-04
    2    2     9    3    0.000000000000000e+00
    2    2    10    1    0.000000000000000e+00
    2    2    10    2   -4.149354613672993e-03
    2    2    10    3    0.000000000000000e+00
    2    2    11    1   -4.206335256757095e-04
    2    2    11    2   -6.626904649119987e-05
    2    2    11    3    0.000000000000000e+00
    2    2    12    1   -1.321776996240631e-02
    2    2    12    2   -1.294297620657385e-02
    2    2    12    3    0.000000000000000e+00
    2    2    13    1   -1.321776996240631e-02
    2    2    13    2   -1.294297620657385e-02
    2    2    13    3    0.000000000000000e+00
    2    2    14    1    0.000000000000000e+00
    2    2    14    2    1.788302319238295e-03
    2    2    14    3    0.000000000000000e+00
    2    2    15    1    0.000000000000000e+00
    2    2    15    2    1.788302319238295e-03
    2    2    15    3    0.000000000000000e+00
    2    2    16    1    0.000000000000000e+00
    2    2    16    2    8.697189786151739e-04
    2    2    16    3    0.000000000000000e+00
    2    2    17    1    0.000000000000000e+00
    2    2    17    2   -1.294297620657385e-02
    2    2    17    3   -1.321776996240631e-02
    2    2    18    1    0.000000000000000e+00
    2    2    18    2   -6.626904649119987e-05
    2    2    18    3   -4.206335256757095e-04
    2    2    19    1    0.000000000000000e+00
    2    2    19    2   -6.626904649119987e-05
    2    2    19    3   -4.206335256757095e-04
    2    2    20    1    0.000000000000000e+00
    2    2    20    2   -9.252033878548304e-04
    2    2    20    3    0.000000000000000e+00
    2    2    21    1    0.000000000000000e+00
    2    2    21    2   -4.109845236144178e-04
    2    2    21    3    0.000000000000000e+00
    2    2    22    1    0.000000000000000e+00
    2    2    22    2   -9.252033878548304e-04
    2    2    22    3    0.000000000000000e+00
    2    2    23    1    4.206335256757095e-04
    2    2    23    2   -6.626904649119987e-05
    2    2    23    3    0.000000000000000e+00
    2    2    24    1    4.206335256757095e-04
    2    2    24    2   -6.626904649119987e-05
    2    2    24    3    0.000000000000000e+00
    2    2    25    1    1.321776996240631e-02
    2    2    25    2   -1.294297620657385e-02
    2    2    25    3    0.000000000000000e+00
    2    2    26    1    0.000000000000000e+00
    2    2    26    2    8.697189786151739e-04
    2    2    26    3    0.000000000000000e+00
    2    2    27    1    0.000000000000000e+00
    2    2    27    2    1.788302319238295e-03
    2    2    27    3    0.000000000000000e+00
    2    2    28    1    0.000000000000000e+00
    2    2    28    2    8.697189786151739e-04
    2    2    28    3    0.000000000000000e+00
    2    2    29    1    0.000000000000000e+00
    2    2    29    2   -6.626904649119987e-05
    2    2    29    3    4.206335256757095e-04
    2    2    30    1    0.000000000000000e+00
    2    2    30    2    1.190592446274967e-03
    2    2    30    3    0.000000000000000e+00
    2    2    31    1   -4.206335256757095e-04
    2    2    31    2   -6.626904649119987e-05
    2    2    31    3    0.000000000000000e+00
    2    2    32    1    0.000000000000000e+00
    2    2    32    2    8.697189786151739e-04
    2    2    32    3    0.000000000000000e+00
    2    3     1    1    0.000000000000000e+00
    2    3     1    2   -1.321776996240631e-02
    2    3     1    3   -1.294297620657385e-02
    2    3     2    1    0.000000000000000e+00
    2    3     2    2    0.000000000000000e+00
    2    3     2    3    9.810295192888396e-02
    2    3     3    1    0.000000000000000e+00
    2    3     3    2    0.000000000000000e+00
    2    3     3    3    1.788302319238295e-03
    2    3     4    1    1.321776996240631e-02
    2    3     4    2    0.000000000000000e+00
    2    3     4    3   -1.294297620657385e-02
    2    3     5    1    0.000000000000000e+00
    2    3     5    2    1.321776996240631e-02
    2    3     5    3   -1.294297620657385e-02
    2    3     6    1    0.000000000000000e+00
    2    3     6    2    4.206335256757095e-04
    2    3     6    3   -6.626904649119987e-05
    2    3     7    1    0.000000000000000e+00
    2    3     7    2    1.321776996240631e-02
    2    3     7    3   -1.294297620657385e-02
    2    3     8    1    0.000000000000000e+00
    2    3     8    2    0.000000000000000e+00
    2    3     8    3   -4.149354613672993e-03
    2    3     9    1    0.000000000000000e+00
    2    3     9    2    0.000000000000000e+00
    2    3     9    3    2.795391854723257e-04
    2    3    10    1    0.000000000000000e+00
    2    3    10    2    0.000000000000000e+00
    2    3    10    3    2.795391854723257e-04
    2    3    11    1    0.000000000000000e+00
    2    3    11    2    0.000000000000000e+00
    2    3    11    3    8.697189786151739e-04
    2    3    12    1    0.000000000000000e+00
    2    3    12    2    0.000000000000000e+00
    2    3    12    3    1.788302319238295e-03
    2    3    13    1    0.000000000000000e+00
    2    3    13    2    0.000000000000000e+00
    2    3    13    3    1.788302319238295e-03
    2    3    14    1   -1.321776996240631e-02
    2    3    14    2    0.000000000000000e+00
    2    3    14    3   -1.294297620657385e-02
    2    3    15    1   -1.321776996240631e-02
    2    3    15    2    0.000000000000000e+00
    2    3    15    3   -1.294297620657385e-02
    2    3    16    1   -4.206335256757095e-04
    2    3    16    2    0.000000000000000e+00
    2    3    16    3   -6.626904649119987e-05
    2    3    17    1    0.000000000000000e+00
    2    3    17    2   -1.321776996240631e-02
    2    3    17    3   -1.294297620657385e-02
    2    3    18    1    0.000000000000000e+00
    2    3    18    2   -4.206335256757095e-04
    2    3    18    3   -6.626904649119987e-05
    2    3    19    1    0.000000000000000e+00
    2    3    19    2   -4.206335256757095e-04
    2    3    19    3   -6.626904649119987e-05
    2    3    20    1    0.000000000000000e+00
    2    3    20    2    0.000000000000000e+00
    2    3    20    3   -9.252033878548304e-04
    2    3    21    1    0.000000000000000e+00
    2    3    21    2    0.000000000000000e+00
    2    3    21    3   -9.252033878548304e-04
    2    3    22    1    0.000000000000000e+00
    2    3    22    2    0.000000000000000e+00
    2    3    22    3   -4.109845236144178e-04
    2    3    23    1    0.000000000000000e+00
    2    3    23    2    0.000000000000000e+00
    2    3    23    3    8.697189786151739e-04
    2    3    24    1    0.000000000000000e+00
    2    3    24    2    0.000000000000000e+00
    2    3    24    3    8.697189786151739e-04
    2    3    25    1    0.000000000000000e+00
    2    3    25    2    0.000000000000000e+00
    2    3    25    3    1.788302319238295e-03
    2    3    26    1    4.206335256757095e-04
    2    3    26    2    0.000000000000000e+00
    2    3    26    3   -6.626904649119987e-05
    2    3    27    1    1.321776996240631e-02
    2    3    27    2    0.000000000000000e+00
    2    3    27    3   -1.294297620657385e-02
    2    3    28    1    4.206335256757095e-04
    2    3    28    2    0.000000000000000e+00
    2    3    28    3   -6.626904649119987e-05
    2    3    29    1    0.000000000000000e+00
    2    3    29    2    4.206335256757095e-04
    2    3    29    3   -6.626904649119987e-05
    2    3    30    1    0.000000000000000e+00
    2    3    30    2    0.000000000000000e+00
    2    3    30    3    1.190592446274967e-03
    2    3    31    1    0.000000000000000e+00
    2    3    31    2    0.000000000000000e+00
    2    3    31    3    8.697189786151739e-04
    2    3    32    1   -4.206335256757095e-04
    2    3    32    2    0.000000000000000e+00
    2    3    32    3   -6.626904649119987e-05
    3    1     1    1   -1.294297620657385e-02
    3    1     1    2    0.000000000000000e+00
    3    1     1    3   -1.321776996240631e-02
    3    1     2    1   -1.294297620657385e-02
    3    1     2    2    1.321776996240631e-02
    3    1     2    3    0.000000000000000e+00
    3    1     3    1    9.810295192888396e-02
    3    1     3    2    0.000000000000000e+00
    3    1     3    3    0.000000000000000e+00
    3    1     4    1    1.788302319238295e-03
    3    1     4    2    0.000000000000000e+00
    3    1     4    3    0.000000000000000e+00
    3    1     5    1   -1.294297620657385e-02
    3    1     5    2    0.000000000000000e+00
    3    1     5    3    1.321776996240631e-02
    3    1     6    1   -1.294297620657385e-02
    3    1     6    2    0.000000000000000e+00
    3    1     6    3    1.321776996240631e-02
    3    1     7    1   -6.626904649119987e-05
    3    1     7    2    0.000000000000000e+00
    3    1     7    3    4.206335256757095e-04
    3    1     8    1   -6.626904649119987e-05
    3    1     8    2   -4.206335256757095e-04
    3    1     8    3    0.000000000000000e+00
    3    1     9    1   -1.294297620657385e-02
    3    1     9    2   -1.321776996240631e-02
    3    1     9    3    0.000000000000000e+00
    3    1    10    1   -1.294297620657385e-02
    3    1    10    2   -1.321776996240631e-02
    3    1    10    3    0.000000000000000e+00
    3    1    11    1    2.795391854723257e-04
    3    1    11    2    0.000000000000000e+00
    3    1    11    3    0.000000000000000e+00
    3    1    12    1   -4.149354613672993e-03
    3    1    12    2    0.000000000000000e+00
    3    1    12    3    0.000000000000000e+00
    3    1    13    1    2.795391854723257e-04
    3    1    13    2    0.000000000000000e+00
    3    1    13    3    0.000000000000000e+00
    3    1    14    1    1.788302319238295e-03
    3    1    14    2    0.000000000000000e+00
    3    1    14    3    0.000000000000000e+00
    3    1    15    1    8.697189786151739e-04
    3    1    15    2    0.000000000000000e+00
    3    1    15    3    0.000000000000000e+00
    3    1    16    1    1.788302319238295e-03
    3    1    16    2    0.000000000000000e+00
    3    1    16    3    0.000000000000000e+00
    3    1    17    1   -6.626904649119987e-05
    3    1    17    2    0.000000000000000e+00
    3    1    17    3   -4.206335256757095e-04
    3    1    18    1   -1.294297620657385e-02
    3    1    18    2    0.000000000000000e+00
    3    1    18    3   -1.321776996240631e-02
    3    1    19    1   -6.626904649119987e-05
    3    1    19    2    0.000000000000000e+00
    3    1    19    3   -4.206335256757095e-04
    3    1    20    1   -6.626904649119987e-05
    3    1    20    2    4.206335256757095e-04
    3    1    20    3    0.000000000000000e+00
    3    1    21    1   -6.626904649119987e-05
    3    1    21    2    4.206335256757095e-04