LAMMPS data file

32 atoms
1 atom types

0.0000000000000000e+00 7.9588 xlo xhi
0.0000000000000000e+00 7.9588 ylo yhi
0.0000000000000000e+00 7.9588 zlo zhi

Masses

1 26.981539

Atoms # atomic

1 1 0.00000 0.00000 0.00000 0 0 0
 2 1 0.00000 1.98971 1.98971 0 0 0
 3 1 1.98971 0.00000 1.98971 0 0 0
 4 1 1.98971 1.98971 0.00000 0 0 0
 5 1 0.00000 0.00000 3.97941 0 0 0
 6 1 3.97941 0.00000 0.00000 0 0 0
 7 1 0.00000 3.97941 0.00000 0 0 0
 8 1 0.00000 1.98971 5.96912 0 0 0
9 1 3.97941 1.98971 1.98971 0 0 0
 10 1 0.00000 5.96912 1.98971 0 0 0
 11 1 1.98971 0.00000 5.96912 0 0 0
 12 1 5.96912 0.00000 1.98971 0 0 0
 13 1 1.98971 3.97941 1.98971 0 0 0
 14 1 1.98971 1.98971 3.97941 0 0 0
 15 1 5.96912 1.98971 0.00000 0 0 0
 16 1 1.98971 5.96912 0.00000 0 0 0
17 1 0.00000 3.97941 3.97941 0 0 0
 18 1 3.97941 0.00000 3.97941 0 0 0
 19 1 3.97941 3.97941 0.00000 0 0 0
 20 1 0.00000 5.96912 5.96912 0 0 0
 21 1 3.97941 1.98971 5.96912 0 0 0
 22 1 3.97941 5.96912 1.98971 0 0 0
 23 1 1.98971 3.97941 5.96912 0 0 0
 24 1 5.96912 0.00000 5.96912 0 0 0
25 1 5.96912 3.97941 1.98971 0 0 0
 26 1 1.98971 5.96912 3.97941 0 0 0
 27 1 5.96912 1.98971 3.97941 0 0 0
 28 1 5.96912 5.96912 0.00000 0 0 0
 29 1 3.97941 3.97941 3.97941 0 0 0
 30 1 3.97941 5.96912 5.96912 0 0 0
 31 1 5.96912 3.97941 5.96912 0 0 0
 32 1 5.96912 5.96912 3.97941 0 0 0
