LAMMPS (17 Nov 2016)
#echo screen

newton on
boundary	 	 p p p
units	 	 	 metal
atom_style	 	 atomic
#atom_modify map array
# Create atoms
read_data DATA
  orthogonal box = (0 0 0) to (7.9588 7.9588 7.9588)
  1 by 1 by 1 MPI processor grid
  reading atoms ...
  32 atoms

mass 1 26.981539 # Al

neighbor    0.01 bin
neigh_modify once yes
pair_style hessian2 3
pair_coeff * *  0  3 IILIST IJLIST EQUIL # inner cutoff, outer cutoff, hessian file, equilibrium positions

# Initialize velocity, thermo settings, timestep and ensemble
velocity	 all create 50 20101 rot yes mom yes
thermo  	 100
thermo_style custom step pe #ke press vol temp
fix 1 all nve
timestep  0.0005

# Run MD
dump 1 all xyz 100 dump.xyz
dump 2 all custom 100 dump.forces fx fy fz
#dump 3 all custom 1 dump.coords type xs ys zs
#dump_modify 3 format float %20.15g scale yes
dump_modify 2 sort id
run 1000000
Neighbor list info ...
  1 neighbor list requests
  update every 1 steps, delay 10 steps, check yes
  max neighbors/atom: 2000, page size: 100000
  master list distance cutoff = 3.01
  ghost atom cutoff = 3.01
  binsize = 1.505 -> bins = 6 6 6
Memory usage per processor = 4.61824 Mbytes
Step PotEng 
       0            0 
     100  0.050867992 
     200  0.083034724 
     300  0.049668639 
     400   0.08661309 
     500  0.048179221 
     600  0.034963925 
     700   0.11317474 
     800   0.09823752 
     900  0.095220837 
    1000  0.082430631 
    1100  0.059841358 
    1200   0.07420173 
    1300   0.10893459 
    1400   0.08557795 
    1500  0.062770212 
    1600  0.040399267 
    1700  0.035625213 
    1800  0.074603231 
    1900  0.064789315 
    2000  0.064751079 
    2100  0.029445663 
    2200  0.035373795 
    2300  0.067927716 
    2400  0.085242558 
    2500  0.091595718 
    2600  0.064386554 
    2700  0.056158061 
    2800  0.078151228 
    2900   0.10276125 
    3000   0.09510634 
    3100  0.096868122 
    3200  0.038933454 
    3300  0.056075339 
    3400  0.092977557 
    3500  0.059876441 
    3600  0.082492218 
    3700  0.047547058 
    3800   0.01076494 
    3900  0.067863211 
    4000  0.088037968 
    4100  0.049488071 
    4200  0.084826816 
    4300  0.045913327 
    4400  0.038642603 
    4500   0.12272903 
    4600  0.088609322 
    4700  0.077879704 
    4800  0.080573237 
    4900   0.05160889 
    5000  0.073165955 
    5100   0.10977294 
    5200  0.068552458 
    5300  0.050257253 
    5400  0.045756615 
    5500  0.037766754 
    5600  0.079030645 
    5700   0.06790243 
    5800  0.057081344 
    5900  0.037005336 
    6000  0.047562536 
    6100  0.082105879 
    6200  0.091473593 
    6300   0.08863192 
    6400  0.068669452 
    6500  0.064298134 
    6600  0.084603639 
    6700   0.10844281 
    6800  0.088262442 
    6900  0.080547291 
    7000  0.043951597 
    7100  0.053481329 
    7200  0.086317912 
    7300  0.055623578 
    7400  0.065032952 
    7500  0.036965306 
    7600  0.015622384 
    7700  0.069978404 
    7800   0.07981725 
    7900  0.048192712 
    8000  0.080540818 
    8100  0.050864778 
    8200  0.051479628 
    8300   0.13268545 
    8400   0.08621862 
    8500  0.077960685 
    8600  0.094735921 
    8700  0.056128725 
    8800   0.08467695 
    8900   0.11420354 
    9000  0.058433674 
    9100   0.04879025 
    9200  0.056163589 
    9300  0.033280148 
    9400  0.075185618 
    9500  0.062889368 
    9600  0.038381873 
    9700  0.038905336 
    9800  0.047825863 
    9900  0.075923929 
   10000  0.082843884 
   10100   0.08041684 
   10200  0.065720092 
   10300  0.069801643 
   10400  0.088668887 
   10500   0.10838695 
   10600  0.087058009 
   10700  0.078589639 
   10800  0.061301961 
   10900  0.059281413 
   11000  0.091179457 
   11100  0.061889599 
   11200  0.061444727 
   11300  0.043307917 
   11400  0.029148822 
   11500  0.069793042 
   11600  0.072714463 
   11700   0.04959172 
   11800  0.071299805 
   11900  0.052479229 
   12000  0.052304497 
   12100   0.12237348 
   12200   0.07296182 
   12300   0.07198412 
   12400  0.094755279 
   12500  0.049597181 
   12600  0.085844558 
   12700   0.10766434 
   12800   0.05073006 
   12900  0.054486898 
   13000  0.068366592 
   13100  0.031294751 
   13200  0.081645198 
   13300  0.069885309 
   13400   0.03594008 
   13500  0.057807601 
   13600   0.05665592 
   13700  0.074266031 
   13800  0.086125385 
   13900  0.082849893 
   14000  0.064286373 
   14100  0.075791155 
   14200   0.08440767 
   14300  0.096846537 
   14400  0.081533114 
   14500  0.070194814 
   14600  0.061563282 
   14700  0.049563161 
   14800  0.082460576 
   14900  0.056288932 
   15000  0.054218421 
   15100  0.046101638 
   15200  0.035057729 
   15300  0.064886118 
   15400  0.073478679 
   15500  0.060438187 
   15600  0.072381703 
   15700  0.066547695 
   15800  0.061233498 
   15900   0.12112037 
   16000  0.079301605 
   16100  0.081309567 
   16200  0.098456285 
   16300  0.050133074 
   16400  0.087165635 
   16500  0.099922618 
   16600  0.046702265 
   16700  0.055220244 
   16800  0.063770247 
   16900   0.01705318 
   17000  0.077627383 
   17100   0.06397526 
   17200  0.025437426 
   17300  0.063678291 
   17400  0.050353539 
   17500  0.064501595 
   17600  0.092675902 
   17700  0.085889335 
   17800  0.064264909 
   17900  0.087445803 
   18000  0.084980369 
   18100  0.097729974 
   18200  0.095494743 
   18300  0.075240506 
   18400  0.067490968 
   18500  0.052832009 
   18600  0.082657723 
   18700  0.059718004 
   18800  0.055705332 
   18900   0.04655877 
   19000  0.031976843 
   19100  0.054688728 
   19200  0.070705733 
   19300  0.059851231 
   19400  0.061660273 
   19500  0.064196117 
   19600  0.053954291 
   19700   0.10958332 
   19800  0.083210761 
   19900  0.081490067 
   20000  0.092380457 
   20100  0.051671179 
   20200  0.088999649 
   20300   0.10118874 
   20400  0.056554391 
   20500  0.063147255 
   20600  0.064328121 
   20700  0.021011041 
   20800   0.08815595 
   20900  0.070364939 
   21000  0.027945285 
   21100  0.071072525 
   21200   0.04529356 
   21300  0.060307135 
   21400   0.10211142 
   21500  0.079510383 
   21600  0.054798531 
   21700  0.085970471 
   21800  0.072158651 
   21900  0.090433472 
   22000   0.10002093 
   22100  0.063136293 
   22200  0.058262084 
   22300  0.053008629 
   22400  0.077596028 
   22500  0.065316918 
   22600  0.060178544 
   22700  0.046151253 
   22800   0.03439842 
   22900  0.061452273 
   23000  0.082466298 
   23100  0.070029788 
   23200  0.063992976 
   23300  0.069041873 
   23400   0.05830959 
   23500   0.11093271 
   23600  0.095029425 
   23700  0.077046632 
   23800  0.082308419 
   23900  0.050527955 
   24000  0.083146233 
   24100   0.09617471 
   24200   0.05443941 
   24300  0.051310655 
   24400  0.049427934 
   24500  0.021009767 
   24600  0.086937194 
   24700  0.068673014 
   24800  0.024930779 
   24900  0.069998172 
   25000  0.043649027 
   25100  0.068163037 
   25200   0.11855885 
   25300  0.077871392 
   25400  0.058138808 
   25500  0.095166051 
   25600  0.075788997 
   25700   0.10029301 
   25800   0.11307073 
   25900  0.052771638 
   26000  0.055384819 
   26100  0.060533781 
   26200  0.070976784 
   26300  0.068846444 
   26400  0.053754917 
   26500  0.030382213 
   26600  0.027954213 
   26700  0.062554668 
   26800  0.078040594 
   26900  0.065303414 
   27000    0.0545262 
   27100  0.062025585 
   27200  0.062346468 
   27300   0.11373639 
   27400   0.10393719 
   27500  0.070978563 
   27600  0.081542323 
   27700  0.061283869 
   27800  0.091379723 
   27900   0.10546298 
   28000  0.061191973 
   28100  0.047104482 
   28200  0.049719946 
   28300  0.036501287 
   28400  0.088028682 
   28500   0.06927423 
   28600  0.019125399 
   28700  0.061974345 
   28800  0.041393053 
   28900  0.071459266 
   29000     0.116425 
   29100  0.060460603 
   29200  0.050510364 
   29300  0.090868922 
   29400  0.073648239 
   29500   0.10198096 
   29600   0.11269643 
   29700  0.036232666 
   29800  0.058397703 
   29900  0.073922612 
   30000  0.070652348 
   30100  0.080977883 
   30200  0.053740774 
   30300  0.026475113 
   30400  0.041936233 
   30500  0.079266436 
   30600  0.078565844 
   30700  0.069132135 
   30800   0.05096462 
   30900  0.059185482 
   31000  0.073114652 
   31100   0.11295954 
   31200  0.098416774 
   31300  0.055286052 
   31400  0.073765093 
   31500  0.060595754 
   31600  0.088781718 
   31700   0.09900307 
   31800  0.050933253 
   31900  0.033812789 
   32000  0.050386296 
   32100  0.049145473 
   32200  0.084192469 
   32300  0.071305771 
   32400  0.017943651 
   32500  0.064444622 
   32600  0.057240062 
   32700  0.086474586 
   32800   0.11838724 
   32900  0.057936574 
   33000  0.057153593 
   33100    0.0973249 
   33200   0.08281541 
   33300   0.10413331 
   33400   0.10543054 
   33500  0.021011871 
   33600  0.061725266 
   33700  0.076991213 
   33800  0.058969298 
   33900   0.07691568 
   34000  0.037688225 
   34100  0.013859633 
   34200  0.050793281 
   34300  0.082049257 
   34400  0.066087658 
   34500  0.069632608 
   34600  0.046797903 
   34700  0.062301288 
   34800   0.09313283 
   34900   0.11543888 
   35000  0.096700386 
   35100  0.057887436 
   35200  0.082048566 
   35300  0.073169721 
   35400  0.098532376 
   35500  0.097109751 
   35600  0.045843217 
   35700   0.03136227 
   35800  0.057381844 
   35900   0.05523466 
   36000  0.072390605 
   36100  0.063235678 
   36200 0.0077458479 
   36300  0.058893775 
   36400  0.063344987 
   36500  0.082095224 
   36600    0.1026819 
   36700  0.050796919 
   36800  0.057514208 
   36900   0.10023665 
   37000  0.090496571 
   37100   0.10203928 
   37200  0.099410549 
   37300  0.023134605 
   37400  0.077249403 
   37500  0.088110082 
   37600  0.060036155 
   37700  0.081610582 
   37800  0.035371551 
   37900  0.018662242 
   38000  0.069459514 
   38100  0.081948301 
   38200  0.054838538 
   38300  0.070615059 
   38400  0.040033724 
   38500  0.061330472 
   38600   0.10158021 
   38700  0.098763869 
   38800  0.080670539 
   38900  0.056092904 
   39000  0.077152928 
   39100  0.074477945 
   39200  0.097631504 
   39300  0.084766263 
   39400  0.040682957 
   39500  0.038116209 
   39600  0.067344587 
   39700  0.062647072 
   39800  0.070997737 
   39900  0.065739823 
   40000  0.015247183 
   40100  0.069852561 
   40200  0.079705177 
   40300  0.081282902 
   40400   0.09683808 
   40500  0.055357812 
   40600  0.060862699 
   40700   0.10253595 
   40800  0.090694241 
   40900  0.088286074 
   41000  0.085585697 
   41100  0.022912741 
   41200  0.075552939 
   41300  0.082308222 
   41400  0.048586263 
   41500  0.072770071 
   41600  0.029098601 
   41700   0.02259806 
   41800  0.080202433 
   41900  0.075568204 
   42000  0.051875451 
   42100   0.07963886 
   42200  0.045879456 
   42300  0.072915003 
   42400   0.11758437 
   42500  0.090824042 
   42600  0.082383986 
   42700  0.071535597 
   42800  0.077369759 
   42900  0.081395729 
   43000  0.096692401 
   43100  0.070989099 
   43200  0.037725456 
   43300  0.043099114 
   43400  0.060588609 
   43500  0.055550731 
   43600   0.05952646 
   43700  0.054796332 
   43800  0.015570805 
   43900  0.069101684 
   44000    0.0804291 
   44100  0.070772284 
   44200  0.093632717 
   44300   0.06207844 
   44400  0.066848478 
   44500    0.1093352 
   44600  0.095915735 
   44700  0.085768298 
   44800   0.09021497 
   44900  0.039881488 
   45000  0.079054892 
   45100  0.086949256 
   45200  0.047582222 
   45300  0.071335614 
   45400  0.031996046 
   45500  0.027661248 
   45600  0.079407347 
   45700  0.062403221 
   45800  0.046454344 
   45900  0.076733024 
   46000  0.041475546 
   46100  0.068977125 
   46200   0.11478478 
   46300  0.072494028 
   46400  0.081800575 
   46500    0.0792801 
   46600  0.069067393 
   46700  0.086918112 
   46800  0.096336416 
   46900  0.065772285 
   47000  0.049167718 
   47100  0.057676756 
   47200  0.058098539 
   47300  0.063878078 
   47400  0.063977627 
   47500  0.056217914 
   47600  0.029423264 
   47700  0.071871902 
   47800  0.079377866 
   47900  0.065224137 
   48000  0.093947689 
   48100  0.060989703 
   48200  0.063561075 
   48300   0.10213548 
   48400  0.086781477 
   48500  0.074415498 
   48600  0.086648544 
   48700  0.041696473 
   48800  0.066626351 
   48900  0.085441857 
   49000  0.043686488 
   49100  0.070571842 
   49200  0.039497451 
   49300    0.0341861 
   49400  0.080227386 
   49500   0.06568322 
   49600  0.057479396 
   49700  0.084424588 
   49800  0.050762127 
   49900  0.073459544 
   50000   0.11916048 
   50100  0.068798743 
   50200  0.090297407 
   50300  0.082692305 
   50400  0.057413839 
   50500  0.087261176 
   50600  0.088403433 
   50700  0.054534164 
   50800  0.050471366 
   50900  0.052642912 
   51000  0.039205656 
   51100  0.065611036 
   51200  0.059202157 
   51300  0.049659062 
   51400  0.038079626 
   51500  0.067499731 
   51600   0.07764573 
   51700   0.07293262 
   51800   0.10257061 
   51900  0.065633007 
   52000  0.072167159 
   52100   0.10538474 
   52200  0.092162925 
   52300  0.081379318 
   52400  0.093515098 
   52500  0.045016383 
   52600  0.059815071 
   52700   0.08867642 
   52800  0.041018759 
   52900  0.066587258 
   53000  0.038145715 
   53100  0.025412965 
   53200  0.068718497 
   53300  0.063915358 
   53400  0.054711637 
   53500  0.076541919 
   53600  0.048309622 
   53700   0.06700548 
   53800   0.11838156 
   53900  0.070498971 
   54000  0.096737289 
   54100  0.083462934 
   54200   0.05539534 
   54300  0.097759684 
   54400  0.094472057 
   54500  0.059279493 
   54600  0.062048249 
   54700  0.053262405 
   54800  0.035533902 
   54900  0.080831963 
   55000  0.059708598 
   55100   0.04520577 
   55200  0.043870421 
   55300  0.056203982 
   55400  0.072153174 
   55500   0.07845417 
   55600  0.093797221 
   55700  0.054307326 
   55800  0.068516421 
   55900  0.095501349 
   56000  0.089687523 
   56100   0.08307724 
   56200  0.087837276 
   56300  0.040375794 
   56400  0.058796393 
   56500  0.096347749 
   56600  0.047002725 
   56700  0.070806431 
   56800  0.044405502 
   56900  0.026915924 
   57000  0.076034741 
   57100  0.078989392 
   57200  0.058997069 
   57300  0.075748148 
   57400  0.051716582 
   57500  0.065011807 
   57600   0.12084109 
   57700  0.073366132 
   57800  0.088427159 
   57900  0.072554934 
   58000  0.047129517 
   58100  0.095908303 
   58200  0.089357339 
   58300  0.051154943 
   58400  0.056117806 
   58500  0.042179487 
   58600  0.033718692 
   58700  0.091907615 
   58800  0.057619487 
   58900  0.042056064 
   59000  0.053396142 
   59100   0.05485411 
   59200  0.083837088 
   59300  0.097774823 
   59400  0.089782456 
   59500  0.056600303 
   59600   0.07840379 
   59700  0.096928771 
   59800  0.097216473 
   59900  0.088376395 
   60000  0.074541287 
   60100  0.034860535 
   60200  0.059037587 
   60300  0.093257918 
   60400  0.042788014 
   60500  0.059303198 
   60600   0.03404085 
   60700  0.018226316 
   60800   0.07859659 
   60900  0.081178731 
   61000  0.051331002 
   61100  0.069996661 
   61200  0.054576268 
   61300  0.068970967 
   61400   0.13125184 
   61500  0.083048962 
   61600  0.082726886 
   61700  0.077568634 
   61800  0.056829405 
   61900   0.10663273 
   62000  0.096226037 
   62100  0.050570387 
   62200  0.052893234 
   62300  0.040337189 
   62400  0.040780571 
   62500  0.095308968 
   62600  0.048444837 
   62700  0.029339198 
   62800  0.051802391 
   62900  0.045752492 
   63000  0.086629485 
   63100  0.098184389 
   63200   0.06830283 
   63300  0.052773054 
   63400  0.082194306 
   63500  0.095280951 
   63600   0.10313311 
   63700  0.091024503 
   63800  0.061184604 
   63900  0.045060266 
   64000  0.073502115 
   64100  0.097921106 
   64200  0.051280076 
   64300  0.057639079 
   64400  0.035276004 
   64500   0.02710867 
   64600  0.092170865 
   64700   0.08067333 
   64800  0.044635981 
   64900  0.063971432 
   65000  0.054674632 
   65100  0.069229197 
   65200   0.13026223 
   65300  0.074636025 
   65400  0.061672332 
   65500  0.076244962 
   65600  0.056299885 
   65700   0.10486253 
   65800  0.092389387 
   65900  0.041420099 
   66000   0.04665165 
   66100  0.047848016 
   66200  0.053571535 
   66300  0.098431663 
   66400  0.049338836 
   66500  0.028814858 
   66600  0.064773403 
   66700   0.05524942 
   66800   0.10067396 
   66900   0.10077141 
   67000  0.056922031 
   67100  0.059893786 
   67200  0.089491864 
   67300   0.09340402 
   67400   0.10201897 
   67500  0.081236878 
   67600   0.03978144 
   67700  0.052005914 
   67800  0.073217161 
   67900  0.084647783 
   68000  0.046627733 
   68100  0.043617892 
   68200   0.03019405 
   68300   0.03707047 
   68400  0.098464773 
   68500  0.073122626 
   68600  0.045293187 
   68700  0.066834195 
   68800  0.066617702 
   68900  0.083340252 
   69000   0.13692471 
   69100  0.073833626 
   69200  0.058536354 
   69300   0.09108817 
   69400   0.06386674 
   69500    0.1067234 
   69600  0.088756191 
   69700  0.031189827 
   69800  0.040984208 
   69900  0.054770612 
   70000  0.051651721 
   70100  0.084591066 
   70200  0.039576342 
   70300  0.017290324 
   70400  0.067138109 
   70500  0.056609294 
   70600  0.098724201 
   70700  0.091215488 
   70800  0.049176508 
   70900  0.069632778 
   71000   0.09932006 
   71100  0.096692176 
   71200   0.10594132 
   71300  0.080386575 
   71400  0.038777409 
   71500  0.075467834 
   71600  0.080048799 
   71700  0.080059356 
   71800  0.051887573 
   71900  0.037928665 
   72000  0.033101056 
   72100  0.050489908 
   72200  0.092547942 
   72300  0.057446295 
   72400  0.042900867 
   72500  0.059877907 
   72600  0.066819969 
   72700  0.083841283 
   72800   0.12363935 
   72900  0.060848146 
   73000  0.054893943 
   73100  0.097891449 
   73200  0.064685834 
   73300   0.10512168 
   73400  0.085929899 
   73500  0.029126962 
   73600  0.050298788 
   73700  0.072134757 
   73800  0.054766367 
   73900  0.083350747 
   74000  0.045933328 
   74100  0.020713303 
   74200   0.08018559 
   74300  0.064992677 
   74400  0.093026605 
   74500  0.084305438 
   74600  0.047136299 
   74700   0.07261034 
   74800  0.098497913 
   74900  0.087120589 
   75000  0.094363093 
   75100  0.068629294 
   75200  0.033425063 
   75300  0.082576704 
   75400  0.071502329 
   75500  0.067801382 
   75600  0.054000156 
   75700  0.033802048 
   75800  0.041122712 
   75900   0.06631419 
   76000  0.086694265 
   76100  0.057122025 
   76200  0.057465277 
   76300  0.065814523 
   76400  0.078894189 
   76500  0.094309106 
   76600   0.11536342 
   76700   0.06154602 
   76800  0.063249503 
   76900  0.099995398 
   77000  0.062051684 
   77100  0.097094009 
   77200   0.07527332 
   77300  0.021176422 
   77400  0.051496012 
   77500  0.069307158 
   77600  0.041094517 
   77700  0.073443706 
   77800  0.044192246 
   77900  0.018286427 
   78000  0.086199622 
   78100  0.068058053 
   78200   0.08428184 
   78300  0.089356922 
   78400   0.05669179 
   78500  0.081791713 
   78600   0.10727715 
   78700  0.089460861 
   78800  0.095333625 
   78900  0.074712217 
   79000  0.042861485 
   79100  0.088940241 
   79200  0.067681794 
   79300  0.060229111 
   79400  0.056848183 
   79500   0.02781773 
   79600  0.041607249 
   79700  0.065448954 
   79800  0.067154263 
   79900  0.051626861 
   80000  0.059587092 
   80100  0.057598421 
   80200  0.077662888 
   80300  0.094033612 
   80400   0.10023903 
   80500  0.068026381 
   80600  0.072647148 
   80700   0.09831547 
   80800  0.067652426 
   80900  0.099348156 
   81000  0.077873449 
   81100  0.030706844 
   81200  0.064734108 
   81300   0.07011192 
   81400   0.04172935 
   81500  0.076744158 
   81600  0.048910517 
   81700  0.019522377 
   81800  0.088110547 
   81900  0.063747547 
   82000  0.070631088 
   82100  0.091964637 
   82200  0.052397101 
   82300   0.07398811 
   82400    0.1015875 
   82500  0.079951031 
   82600  0.086827011 
   82700  0.076623629 
   82800  0.043129249 
   82900  0.084138182 
   83000  0.068197265 
   83100  0.059105744 
   83200  0.067035099 
   83300  0.032290996 
   83400  0.050386394 
   83500  0.071764238 
   83600   0.06631357 
   83700   0.06408965 
   83800  0.069804287 
   83900   0.05681061 
   84000  0.081246917 
   84100  0.096788525 
   84200  0.088670306 
   84300  0.076562054 
   84400  0.069565348 
   84500  0.082789143 
   84600   0.06556132 
   84700  0.090398702 
   84800  0.068492229 
   84900  0.029824932 
   85000  0.060622192 
   85100  0.056707605 
   85200  0.043604446 
   85300  0.077608911 
   85400  0.051130612 
   85500  0.023453143 
   85600  0.092383687 
   85700  0.067588142 
   85800  0.075175026 
   85900   0.10855951 
   86000  0.055558302 
   86100  0.077524109 
   86200   0.10819901 
   86300  0.082440163 
   86400  0.088154261 
   86500  0.083444402 
   86600  0.037444838 
   86700  0.074919194 
   86800  0.069084295 
   86900  0.050610438 
   87000  0.064694112 
   87100   0.02390102 
   87200  0.041665812 
   87300   0.06465467 
   87400  0.062131564 
   87500  0.065564148 
   87600  0.067621588 
   87700  0.051119686 
   87800  0.083612495 
   87900   0.10323892 
   88000   0.08788518 
   88100  0.092024945 
   88200  0.070079543 
   88300  0.080736418 
   88400  0.080985353 
   88500  0.095335298 
   88600  0.070873499 
   88700   0.03853972 
   88800  0.057713385 
   88900  0.050727745 
   89000  0.054510566 
   89100  0.073488128 
   89200  0.044753538 
   89300   0.01935067 
   89400  0.083550034 
   89500  0.062102976 
   89600  0.073552388 
   89700   0.10603914 
   89800   0.04234271 
   89900  0.072667386 
   90000   0.10855594 
   90100  0.082032376 
   90200  0.089361353 
   90300  0.087662998 
   90400  0.032092793 
   90500  0.078558115 
   90600  0.084521869 
   90700  0.053234259 
   90800  0.072251265 
   90900  0.027983864 
   91000  0.042525989 
   91100  0.073099156 
   91200  0.071387005 
   91300  0.065981947 
   91400  0.064164589 
   91500  0.045922081 
   91600  0.082462307 
   91700    0.1040426 
   91800  0.079994444 
   91900  0.087876352 
   92000  0.055082803 
   92100  0.070910125 
   92200  0.086619807 
   92300  0.088566801 
   92400  0.063184469 
   92500   0.03909728 
   92600  0.049881695 
   92700  0.053727693 
   92800  0.071946893 
   92900  0.071311582 
   93000  0.046021162 
   93100  0.029056753 
   93200  0.087096603 
   93300  0.074915906 
   93400  0.086245211 
   93500   0.10458151 
   93600  0.038859059 
   93700  0.077855342 
   93800   0.11257061 
   93900  0.081488646 
   94000  0.085698735 
   94100  0.077683684 
   94200  0.018777409 
   94300  0.077564312 
   94400  0.086208544 
   94500  0.040090961 
   94600  0.064189223 
   94700  0.021271742 
   94800  0.035346181 
   94900  0.082070526 
   95000  0.075874298 
   95100  0.059839394 
   95200  0.065055591 
   95300  0.051534107 
   95400  0.092175772 
   95500   0.11777604 
   95600  0.083804469 
   95700  0.088455221 
   95800  0.057400102 
   95900  0.077838426 
   96000   0.10049926 
   96100  0.085679868 
   96200  0.056794999 
   96300  0.037092251 
   96400  0.041751096 
   96500  0.057049122 
   96600  0.075241687 
   96700  0.052979594 
   96800  0.034617338 
   96900   0.02891427 
   97000  0.078668279 
   97100  0.080280848 
   97200   0.08504336 
   97300  0.089081237 
   97400  0.038280016 
   97500  0.086594146 
   97600   0.11872069 
   97700  0.086588519 
   97800  0.088582967 
   97900    0.0739645 
   98000  0.026494136 
   98100  0.093403591 
   98200  0.095342118 
   98300  0.036557586 
   98400  0.064409182 
   98500  0.023152125 
   98600  0.036025414 
   98700  0.094468097 
   98800  0.069845154 
   98900    0.0446975 
   99000  0.060697483 
   99100  0.049760711 
   99200    0.0891846 
   99300   0.11762363 
   99400  0.070248695 
   99500  0.073683392 
   99600  0.058976521 
   99700  0.079271749 
   99800   0.10622403 
   99900  0.079682378 
  100000  0.052117526 
  100100  0.040941827 
  100200  0.049437853 
  100300  0.072282851 
  100400  0.082910351 
  100500  0.047036124 
  100600  0.038768877 
  100700  0.043870262 
  100800  0.081224768 
  100900  0.093021104 
  101000  0.080756484 
  101100  0.074205793 
  101200  0.043484646 
  101300  0.090388414 
  101400   0.11294521 
  101500    0.0796133 
  101600  0.076082136 
  101700  0.057275489 
  101800  0.031167199 
  101900   0.09428068 
  102000  0.087615632 
  102100  0.026059003 
  102200   0.06064588 
  102300  0.026178681 
  102400  0.043530545 
  102500   0.10857224 
  102600  0.064450934 
  102700  0.043560098 
  102800  0.072950743 
  102900  0.062696631 
  103000  0.097629241 
  103100    0.1267505 
  103200  0.062883575 
  103300  0.070315172 
  103400  0.073072761 
  103500  0.079209103 
  103600   0.10515979 
  103700   0.06827271 
  103800  0.039873589 
  103900  0.037157327 
  104000   0.05092946 
  104100  0.068432086 
  104200  0.071415263 
  104300  0.032580174 
  104400  0.035685274 
  104500  0.052042847 
  104600   0.07873355 
  104700  0.099263502 
  104800  0.073225409 
  104900  0.070168596 
  105000  0.061623908 
  105100   0.10155282 
  105200   0.11518642 
  105300  0.085143233 
  105400  0.075331313 
  105500  0.058086941 
  105600  0.052024275 
  105700  0.095725283 
  105800  0.081328799 
  105900   0.02183829 
  106000  0.057078554 
  106100  0.027085004 
  106200  0.045960856 
  106300   0.10396477 
  106400  0.045095648 
  106500   0.03676033 
  106600  0.073896367 
  106700  0.061869675 
  106800  0.093115462 
  106900   0.12321517 
  107000  0.049575034 
  107100  0.071992489 
  107200  0.089207358 
  107300  0.077663241 
  107400   0.10809345 
  107500  0.068904617 
  107600  0.040814884 
  107700  0.050440081 
  107800  0.066206415 
  107900  0.068411365 
  108000  0.070698105 
  108100  0.033121954 
  108200  0.040341059 
  108300  0.062211917 
  108400  0.074829314 
  108500  0.095216556 
  108600  0.060655865 
  108700  0.064164906 
  108800   0.06764585 
  108900  0.095202216 
  109000   0.10195365 
  109100  0.078669471 
  109200  0.064621161 
  109300  0.056072073 
  109400   0.06434228 
  109500  0.086335674 
  109600   0.07569479 
  109700  0.026858933 
  109800  0.060327095 
  109900  0.038777041 
  110000  0.058457265 
  110100   0.10360241 
  110200  0.044115453 
  110300  0.049168715 
  110400  0.084084926 
  110500  0.067548299 
  110600   0.09425813 
  110700   0.11968385 
  110800  0.041535006 
  110900  0.076309424 
  111000  0.093325676 
  111100  0.062856959 
  111200   0.09978866 
  111300   0.06025133 
  111400  0.030103932 
  111500  0.053743587 
  111600  0.064681354 
  111700  0.053543313 
  111800  0.067967392 
  111900  0.034763986 
  112000   0.04314368 
  112100  0.073223354 
  112200  0.075554573 
  112300  0.095752867 
  112400  0.066922948 
  112500  0.074297042 
  112600  0.081709164 
  112700  0.098305223 
  112800   0.10114011 
  112900   0.08322349 
  113000  0.064522783 
  113100  0.060942704 
  113200  0.069859178 
  113300  0.071786302 
  113400  0.068112206 
  113500  0.027564917 
  113600   0.05064084 
  113700  0.038057106 
  113800  0.053710086 
  113900  0.087003108 
  114000  0.040228616 
  114100  0.053237437 
  114200  0.081639201 
  114300  0.067002803 
  114400  0.094975814 
  114500   0.11686803 
  114600  0.047072589 
  114700  0.088768112 
  114800  0.099981003 
  114900  0.061082285 
  115000   0.10725716 
  115100  0.066871569 
  115200  0.032473053 
  115300  0.066677024 
  115400  0.063569592 
  115500  0.045221583 
  115600  0.072604718 
  115700  0.035338601 
  115800  0.036996844 
  115900  0.074318514 
  116000  0.064455758 
  116100  0.084172028 
  116200  0.068396742 
  116300  0.068339477 
  116400  0.077710603 
  116500  0.091193241 
  116600  0.095132923 
  116700  0.083653425 
  116800  0.066294146 
  116900  0.064703367 
  117000  0.073311874 
  117100  0.069275866 
  117200  0.075094517 
  117300  0.041333115 
  117400  0.051037487 
  117500  0.049493946 
  117600  0.057664923 
  117700  0.084262531 
  117800  0.051279054 
  117900  0.058801942 
  118000   0.07603858 
  118100  0.066086534 
  118200  0.092484367 
  118300   0.10668703 
  118400   0.04852908 
  118500  0.082624119 
  118600  0.088200919 
  118700   0.05162774 
  118800   0.10481328 
  118900  0.062343746 
  119000  0.026969103 
  119100  0.070151308 
  119200   0.05615603 
  119300  0.045653099 
  119400  0.084068404 
  119500  0.040393323 
  119600  0.037836348 
  119700  0.087141901 
  119800  0.066508787 
  119900   0.08975305 
  120000  0.085669278 
  120100  0.066130548 
  120200  0.079741468 
  120300  0.093708174 
  120400   0.09405287 
  120500  0.083120596 
  120600  0.065297271 
  120700  0.054744303 
  120800  0.065348497 
  120900  0.062523114 
  121000   0.07002583 
  121100  0.039270636 
  121200  0.036912007 
  121300  0.048484312 
  121400  0.052708742 
  121500  0.081895461 
  121600  0.059700784 
  121700  0.058733383 
  121800  0.072468548 
  121900  0.075843889 
  122000   0.10082829 
  122100   0.10948952 
  122200  0.063749938 
  122300   0.08157853 
  122400  0.089743853 
  122500  0.060773865 
  122600   0.11090692 
  122700  0.061641901 
  122800  0.025017015 
  122900  0.068464535 
  123000  0.047385863 
  123100  0.047364074 
  123200  0.082605641 
  123300   0.02946053 
  123400  0.026048164 
  123500  0.087545987 
  123600  0.057774074 
  123700  0.088190539 
  123800  0.089834886 
  123900  0.051371063 
  124000  0.080594457 
  124100   0.10104145 
  124200  0.096031195 
  124300  0.088112947 
  124400  0.071914176 
  124500  0.050927076 
  124600  0.074887961 
  124700  0.074869153 
  124800  0.074118895 
  124900  0.045014805 
  125000  0.032952478 
  125100  0.053363251 
  125200   0.05563375 
  125300  0.084004196 
  125400  0.059271509 
  125500  0.048448595 
  125600  0.062525667 
  125700   0.07825706 
  125800  0.096547881 
  125900  0.099621895 
  126000  0.061935697 
  126100  0.065020301 
  126200  0.087047453 
  126300  0.067839588 
  126400   0.10841599 
  126500  0.057679396 
  126600  0.026287439 
  126700  0.069808676 
  126800  0.054296998 
  126900   0.06303957 
  127000  0.086054294 
  127100  0.029349495 
  127200  0.031132455 
  127300   0.10004382 
  127400    0.0621537 
  127500  0.094778877 
  127600  0.090413978 
  127700  0.037593531 
  127800  0.084567078 
  127900   0.10527539 
  128000  0.086559848 
  128100    0.0811967 
  128200   0.06274298 
  128300  0.034230177 
  128400  0.078688782 
  128500   0.07571371 
  128600  0.061684397 
  128700  0.041403718 
  128800   0.02725162 
  128900  0.056678291 
  129000  0.066346636 
  129100  0.089408644 
  129200  0.059670066 
  129300  0.049894043 
  129400  0.070178512 
  129500  0.094880091 
  129600   0.10424296 
  129700   0.10031599 
  129800  0.065030849 
  129900  0.059730594 
  130000  0.095155382 
  130100  0.076736865 
  130200  0.097743668 
  130300  0.048291758 
  130400  0.020498966 
  130500  0.061603262 
  130600  0.055675623 
  130700  0.061870336 
  130800  0.069188138 
  130900  0.019107676 
  131000   0.03123564 
  131100    0.1028148 
  131200  0.064193463 
  131300  0.095282795 
  131400  0.085968187 
  131500  0.034987841 
  131600   0.10100041 
  131700   0.11780485 
  131800  0.085575519 
  131900  0.086582705 
  132000    0.0640869 
  132100  0.035967377 
  132200  0.097203863 
  132300   0.08006848 
  132400  0.049598839 
  132500    0.0421618 
  132600  0.023885047 
  132700  0.056072495 
  132800  0.073005359 
  132900  0.077510768 
  133000  0.044547025 
  133100  0.044162169 
  133200  0.069025755 
  133300  0.096360713 
  133400  0.099810773 
  133500  0.089023099 
  133600    0.0601147 
  133700  0.060137274 
  133800   0.10555926 
  133900  0.085535546 
  134000  0.089655174 
  134100  0.051002272 
  134200  0.027965555 
  134300  0.069953573 
  134400   0.07174707 
  134500  0.065783481 
  134600  0.060744328 
  134700  0.023632554 
  134800  0.041289032 
  134900   0.10524009 
  135000  0.067002477 
  135100  0.085327822 
  135200  0.073915766 
  135300  0.031968359 
  135400   0.10608588 
  135500   0.11196364 
  135600  0.070005575 
  135700  0.079047657 
  135800  0.054497094 
  135900  0.036718819 
  136000   0.10657456 
  136100  0.074485813 
  136200  0.037093435 
  136300   0.05108061 
  136400  0.029313766 
  136500   0.06560534 
  136600  0.089851313 
  136700  0.070787747 
  136800  0.045361728 
  136900  0.058125254 
  137000  0.079560847 
  137100   0.10237485 
  137200   0.10155064 
  137300  0.077997082 
  137400  0.058441931 
  137500  0.064983828 
  137600   0.10497048 
  137700  0.079701119 
  137800  0.070114534 
  137900  0.044248145 
  138000  0.024160317 
  138100  0.068749203 
  138200  0.071506723 
  138300  0.054419946 
  138400  0.048464688 
  138500  0.030573976 
  138600  0.050843352 
  138700   0.10704608 
  138800  0.075216465 
  138900   0.07975452 
  139000  0.078257794 
  139100  0.048335256 
  139200   0.11942124 
  139300   0.11340222 
  139400  0.068250198 
  139500  0.081238608 
  139600  0.055470125 
  139700  0.046582178 
  139800   0.10841365 
  139900  0.062294672 
  140000  0.023260468 
  140100  0.054831591 
  140200  0.023746438 
  140300  0.062591824 
  140400  0.088225313 
  140500  0.048418606 
  140600  0.041451788 
  140700  0.065884082 
  140800  0.078504377 
  140900   0.10027457 
  141000    0.1026154 
  141100  0.068444374 
  141200  0.068847861 
  141300  0.080676364 
  141400   0.10712157 
  141500  0.083721389 
  141600   0.06799318 
  141700  0.052255255 
  141800  0.034416291 
  141900  0.077626713 
  142000  0.071320117 
  142100   0.04780035 
  142200  0.043911225 
  142300  0.038036591 
  142400  0.051691458 
  142500  0.098089947 
  142600  0.070840251 
  142700  0.062506863 
  142800  0.076275656 
  142900  0.052630652 
  143000   0.11305972 
  143100    0.1024673 
  143200  0.062943013 
  143300  0.078404992 
  143400  0.059049487 
  143500  0.057283955 
  143600   0.10651627 
  143700  0.059691245 
  143800  0.027016645 
  143900  0.070229388 
  144000  0.030257276 
  144100  0.071308369 
  144200  0.093073013 
  144300   0.04068838 
  144400  0.052370375 
  144500  0.077153939 
  144600  0.073724445 
  144700   0.09644541 
  144800  0.099471967 
  144900  0.053458791 
  145000  0.074076029 
  145100  0.080365782 
  145200  0.089396224 
  145300   0.07697564 
  145400  0.059029123 
  145500  0.048460011 
  145600  0.037919952 
  145700   0.07695009 
  145800  0.063676482 
  145900  0.048065636 
  146000  0.049097708 
  146100  0.050302065 
  146200  0.059106031 
  146300   0.10028452 
  146400  0.078064568 
  146500  0.063894453 
  146600  0.089770407 
  146700  0.063646945 
  146800   0.10954393 
  146900   0.10015333 
  147000   0.06405371 
  147100  0.074599589 
  147200   0.06056183 
  147300  0.055323816 
  147400  0.090496961 
  147500  0.051292447 
  147600  0.023191398 
  147700  0.067447435 
  147800  0.024049509 
  147900  0.066578554 
  148000  0.086563504 
  148100  0.034954098 
  148200  0.062156307 
  148300  0.082913934 
  148400  0.069883523 
  148500   0.10256967 
  148600   0.10603229 
  148700  0.054556299 
  148800  0.092020677 
  148900  0.086491256 
  149000  0.082665939 
  149100   0.08728747 
  149200  0.061947314 
  149300   0.04795621 
  149400  0.045340768 
  149500  0.070516667 
  149600  0.053130788 
  149700    0.0489887 
  149800  0.045431354 
  149900  0.044923993 
  150000  0.053354429 
  150100  0.089638062 
  150200   0.07307804 
  150300  0.060479068 
  150400  0.090624927 
  150500   0.06260074 
  150600   0.10186498 
  150700   0.10302754 
  150800  0.069429602 
  150900  0.077093801 
  151000  0.069699947 
  151100  0.059484027 
  151200  0.089240548 
  151300  0.062467891 
  151400  0.032580148 
  151500  0.069580991 
  151600  0.029166669 
  151700  0.066629152 
  151800  0.085874837 
  151900  0.036430426 
  152000  0.064780207 
  152100  0.076161557 
  152200   0.05939166 
  152300   0.10098037 
  152400  0.099275196 
  152500  0.046459171 
  152600  0.091560257 
  152700  0.076560242 
  152800  0.070330294 
  152900  0.095497072 
  153000  0.058916891 
  153100   0.04392748 
  153200  0.055107549 
  153300  0.066637425 
  153400  0.057062705 
  153500  0.064957469 
  153600  0.049847487 
  153700  0.047486642 
  153800  0.064102379 
  153900  0.091158728 
  154000  0.080298252 
  154100  0.067866911 
  154200  0.088198117 
  154300  0.060479942 
  154400  0.096309674 
  154500   0.10370273 
  154600   0.06426786 
  154700  0.068512887 
  154800   0.06225473 
  154900   0.04982314 
  155000  0.080901758 
  155100  0.064069062 
  155200  0.027618182 
  155300   0.05978158 
  155400  0.032816946 
  155500  0.064758138 
  155600  0.091532073 
  155700  0.044757465 
  155800  0.068531784 
  155900  0.077696038 
  156000  0.067702928 
  156100   0.11334186 
  156200   0.10435703 
  156300  0.051867523 
  156400  0.094170625 
  156500   0.07588435 
  156600  0.069921076 
  156700   0.10560115 
  156800  0.049308107 
  156900  0.034318374 
  157000  0.055891576 
  157100  0.053365862 
  157200  0.055163826 
  157300  0.065912151 
  157400  0.034912216 
  157500  0.037375964 
  157600  0.069527999 
  157700  0.084001922 
  157800  0.084489642 
  157900  0.071579501 
  158000  0.080169351 
  158100   0.06645951 
  158200   0.10481481 
  158300   0.11306763 
  158400  0.068287283 
  158500  0.072537204 
  158600  0.064230182 
  158700  0.057245804 
  158800  0.088210372 
  158900  0.070711599 
  159000  0.023189567 
  159100  0.052759794 
  159200  0.038301951 
  159300  0.059760443 
  159400  0.092090341 
  159500  0.039168686 
  159600  0.055030729 
  159700  0.069469067 
  159800  0.069362395 
  159900   0.11031794 
  160000  0.097283459 
  160100  0.047287354 
  160200  0.086643258 
  160300  0.078738613 
  160400  0.075483403 
  160500   0.11422393 
  160600  0.043335242 
  160700   0.03666722 
  160800  0.067771549 
  160900  0.057609996 
  161000  0.068705052 
  161100  0.072859173 
  161200  0.027595341 
  161300  0.041052852 
  161400  0.084234528 
  161500  0.078585833 
  161600  0.088318008 
  161700  0.066535348 
  161800  0.063080687 
  161900  0.069819004 
  162000   0.10501949 
  162100    0.1034009 
  162200  0.058100548 
  162300  0.063401375 
  162400   0.05449906 
  162500  0.062544309 
  162600  0.089190531 
  162700  0.066930716 
  162800  0.017754321 
  162900  0.053543605 
  163000  0.051781012 
  163100  0.066581724 
  163200   0.10194632 
  163300  0.040915479 
  163400  0.054699383 
  163500  0.080525567 
  163600  0.084583248 
  163700   0.11162178 
  163800   0.09588145 
  163900  0.044196005 
  164000   0.08032919 
  164100  0.084934385 
  164200   0.07460477 
  164300   0.10487972 
  164400  0.027033343 
  164500  0.029501511 
  164600  0.066630023 
  164700  0.053783312 
  164800  0.067210125 
  164900  0.063365658 
  165000  0.015679827 
  165100  0.047844747 
  165200  0.097245369 
  165300  0.075240389 
  165400  0.095726467 
  165500  0.066736379 
  165600  0.061083414 
  165700   0.09215549 
  165800   0.11605079 
  165900  0.099654323 
  166000  0.061671947 
  166100  0.063787456 
  166200  0.055145911 
  166300  0.076363078 
  166400  0.085737553 
  166500   0.05384868 
  166600  0.011015658 
  166700  0.049745137 
  166800  0.053416608 
  166900  0.062603104 
  167000  0.092413004 
  167100  0.027421402 
  167200  0.047759277 
  167300  0.086786655 
  167400  0.088820975 
  167500   0.10469254 
  167600  0.092775687 
  167700  0.043538487 
  167800  0.084771605 
  167900   0.10227097 
  168000  0.079766783 
  168100   0.10116895 
  168200  0.029698455 
  168300  0.037473753 
  168400  0.078250539 
  168500  0.061620274 
  168600  0.066633235 
  168700  0.055662535 
  168800  0.012436897 
  168900  0.056494945 
  169000  0.099759389 
  169100  0.063648714 
  169200  0.088314958 
  169300  0.055344317 
  169400  0.052917486 
  169500   0.10298619 
  169600    0.1081552 
  169700   0.08236228 
  169800  0.061260616 
  169900  0.059644726 
  170000  0.058700828 
  170100  0.090852465 
  170200  0.080325062 
  170300   0.04703792 
  170400  0.023091872 
  170500  0.058725949 
  170600  0.066119092 
  170700  0.071535975 
  170800  0.088412146 
  170900  0.027677253 
  171000   0.05606847 
  171100  0.098074656 
  171200  0.088504342 
  171300  0.095941998 
  171400   0.08439009 
  171500  0.038366865 
  171600  0.083850761 
  171700   0.10427936 
  171800  0.065937454 
  171900   0.08335601 
  172000  0.027304725 
  172100  0.034686437 
  172200  0.081774996 
  172300  0.061295449 
  172400  0.058374896 
  172500  0.051818427 
  172600  0.021915911 
  172700  0.070717443 
  172800     0.106617 
  172900  0.065147098 
  173000  0.090575695 
  173100  0.062221598 
  173200  0.062529837 
  173300   0.12018654 
  173400   0.10222213 
  173500  0.073448288 
  173600  0.066690738 
  173700  0.055784624 
  173800  0.060612037 
  173900  0.092216724 
  174000  0.060688734 
  174100   0.03257492 
  174200  0.029307456 
  174300  0.050855342 
  174400    0.0644896 
  174500   0.06758176 
  174600  0.072240739 
  174700  0.028972386 
  174800  0.065830905 
  174900   0.10383904 
  175000  0.087586589 
  175100  0.097171907 
  175200  0.085366795 
  175300   0.05004708 
  175400  0.096678253 
  175500   0.11224857 
  175600  0.062238929 
  175700  0.081430378 
  175800  0.038294755 
  175900  0.036698081 
  176000  0.087286295 
  176100  0.056223863 
  176200  0.045940668 
  176300  0.047343818 
  176400  0.026157015 
  176500  0.066860276 
  176600  0.097816159 
  176700  0.055321735 
  176800  0.079506346 
  176900  0.063915662 
  177000  0.063358272 
  177100   0.12262343 
  177200   0.09102446 
  177300  0.070659932 
  177400  0.075978163 
  177500  0.059736656 
  177600  0.070508792 
  177700  0.098212762 
  177800  0.054885111 
  177900  0.038447141 
  178000  0.049630259 
  178100  0.049256962 
  178200  0.071716136 
  178300  0.068737458 
  178400  0.061435731 
  178500  0.037490194 
  178600  0.071423969 
  178700  0.095107389 
  178800  0.078658966 
  178900  0.090993917 
  179000  0.073704366 
  179100   0.05278757 
  179200  0.092822532 
  179300   0.10165317 
  179400  0.052191659 
  179500  0.078398869 
  179600  0.044102292 
  179700  0.036635885 
  179800  0.092688888 
  179900  0.054319713 
  180000  0.046651811 
  180100  0.059036829 
  180200  0.040778975 
  180300  0.069679969 
  180400   0.10303359 
  180500  0.059293782 
  180600  0.080360614 
  180700  0.076283638 
  180800  0.064672336 
  180900   0.11908606 
  181000  0.082064558 
  181100  0.067402084 
  181200  0.074425087 
  181300  0.053627859 
  181400  0.064039311 
  181500   0.08761934 
  181600  0.042019554 
  181700  0.037486899 
  181800  0.054697893 
  181900  0.037096095 
  182000  0.074513016 
  182100  0.068505243 
  182200  0.057289141 
  182300  0.053964797 
  182400  0.079582743 
  182500  0.091877126 
  182600   0.08793323 
  182700  0.099578988 
  182800  0.075223252 
  182900  0.068565421 
  183000  0.093560412 
  183100  0.096354791 
  183200  0.054970366 
  183300  0.079249003 
  183400  0.043083118 
  183500  0.031819415 
  183600  0.086673071 
  183700  0.043220222 
  183800  0.041321545 
  183900  0.058140059 
  184000  0.035885956 
  184100  0.058656171 
  184200   0.10084302 
  184300  0.056654453 
  184400  0.078455007 
  184500  0.085016929 
  184600  0.062564484 
  184700   0.11839334 
  184800  0.088962479 
  184900  0.074802226 
  185000  0.081503226 
  185100  0.060377089 
  185200  0.067095333 
  185300  0.090711774 
  185400  0.046906505 
  185500  0.044408096 
  185600   0.05759594 
  185700   0.02912855 
  185800  0.076441584 
  185900  0.065814791 
  186000  0.049412251 
  186100  0.057611401 
  186200  0.069546971 
  186300  0.077038208 
  186400  0.090607662 
  186500  0.094041228 
  186600  0.065873182 
  186700  0.073240958 
  186800   0.08481538 
  186900  0.091017072 
  187000  0.066308596 
  187100  0.080313923 
  187200  0.044531374 
  187300  0.039159108 
  187400  0.090053653 
  187500  0.049590386 
  187600  0.052911208 
  187700   0.06497473 
  187800  0.036471137 
  187900  0.061112181 
  188000   0.10659377 
  188100  0.057894489 
  188200  0.076682931 
  188300  0.084623297 
  188400  0.051597287 
  188500   0.11157904 
  188600   0.09012491 
  188700  0.064857282 
  188800  0.073130268 
  188900  0.053804292 
  189000  0.058424067 
  189100  0.088905085 
  189200  0.049200758 
  189300  0.042214169 
  189400  0.055956253 
  189500  0.030628074 
  189600  0.084656978 
  189700  0.075368308 
  189800  0.053328148 
  189900  0.068218733 
  190000  0.070369454 
  190100  0.081682805 
  190200   0.10701399 
  190300  0.094100141 
  190400  0.062956847 
  190500  0.077810671 
  190600   0.07704828 
  190700  0.087555288 
  190800  0.073881512 
  190900  0.064194963 
  191000  0.033824421 
  191100  0.037021459 
  191200  0.079685837 
  191300  0.047869252 
  191400  0.052002662 
  191500  0.055062102 
  191600  0.030022151 
  191700  0.067424561 
  191800   0.11022392 
  191900  0.062669865 
  192000  0.079238848 
  192100  0.088126806 
  192200  0.055066416 
  192300   0.12300063 
  192400    0.1039854 
  192500  0.062034146 
  192600  0.076562815 
  192700  0.056794362 
  192800  0.059963463 
  192900  0.094443613 
  193000  0.050558724 
  193100  0.030192123 
  193200  0.049780126 
  193300  0.029576227 
  193400  0.080341245 
  193500   0.07386604 
  193600  0.041016078 
  193700  0.061036902 
  193800  0.062883517 
  193900  0.083508503 
  194000   0.11216709 
  194100  0.086656068 
  194200  0.058826408 
  194300  0.082909628 
  194400  0.079733421 
  194500  0.096335611 
  194600  0.088353053 
  194700  0.054040345 
  194800  0.040095317 
  194900  0.050487394 
  195000  0.082033593 
  195100  0.058044076 
  195200   0.05412089 
  195300  0.044868685 
  195400  0.031038228 
  195500  0.076863836 
  195600   0.10352284 
  195700   0.05933182 
  195800  0.068089105 
  195900  0.077547707 
  196000  0.052492385 
  196100   0.12411245 
  196200  0.099078285 
  196300  0.046479044 
  196400  0.073955133 
  196500  0.055836931 
  196600  0.064267174 
  196700   0.10113015 
  196800   0.05140862 
  196900  0.023339453 
  197000  0.060232868 
  197100   0.04369861 
  197200  0.086856759 
  197300  0.084319732 
  197400  0.037291454 
  197500  0.063619049 
  197600  0.070966828 
  197700  0.092747531 
  197800   0.11170848 
  197900  0.077290328 
  198000  0.050240855 
  198100  0.081273155 
  198200  0.077615878 
  198300  0.092198539 
  198400  0.081969354 
  198500  0.030620535 
  198600  0.039669985 
  198700  0.054160721 
  198800  0.076456982 
  198900  0.060511031 
  199000  0.049028594 
  199100   0.03650081 
  199200  0.045212673 
  199300  0.092955128 
  199400   0.10141151 
  199500  0.068006951 
  199600  0.068160264 
  199700  0.082264179 
  199800  0.069478366 
  199900   0.13285254 
  200000  0.094639939 
  200100   0.04001667 
  200200  0.075820505 
  200300  0.055946658 
  200400  0.067009469 
  200500  0.095723981 
  200600  0.036924217 
  200700 0.0087992253 
  200800   0.06363826 
  200900  0.043293631 
  201000  0.078560794 
  201100  0.080575376 
  201200  0.023715208 
  201300  0.063617219 
  201400  0.082655314 
  201500  0.097929074 
  201600   0.10892635 
  201700  0.077387797 
  201800  0.052673488 
  201900  0.094084861 
  202000  0.091039709 
  202100  0.095829103 
  202200   0.08193267 
  202300  0.025175027 
  202400  0.051662875 
  202500  0.063438902 
  202600  0.073038564 
  202700   0.05843216 
  202800   0.03850554 
  202900  0.027328413 
  203000  0.055243553 
  203100  0.091214989 
  203200  0.083567989 
  203300  0.063804174 
  203400  0.056666756 
  203500  0.079478927 
  203600  0.080428459 
  203700    0.1267205 
  203800    0.0828135 
  203900  0.040733825 
  204000  0.081334893 
  204100  0.064266891 
  204200   0.07821589 
  204300  0.095220533 
  204400  0.033879106 
  204500  0.016484088 
  204600  0.080427598 
  204700  0.050694729 
  204800  0.078252445 
  204900  0.080628181 
  205000  0.017013473 
  205100  0.069096821 
  205200  0.092435508 
  205300  0.088637997 
  205400  0.096134828 
  205500  0.069897391 
  205600  0.044720823 
  205700  0.095644412 
  205800  0.090086582 
  205900  0.080947863 
  206000  0.071695874 
  206100  0.021999601 
  206200  0.058131348 
  206300  0.070424134 
  206400  0.069982371 
  206500  0.058965689 
  206600   0.03943254 
  206700  0.036593832 
  206800  0.075988179 
  206900  0.095396597 
  207000  0.079560835 
  207100  0.072173597 
  207200  0.058753608 
  207300   0.08656459 
  207400  0.093708452 
  207500   0.11313138 
  207600  0.071599479 
  207700   0.04258506 
  207800  0.076562701 
  207900  0.062107317 
  208000  0.073684121 
  208100   0.07704174 
  208200  0.022107406 
  208300  0.020565284 
  208400  0.081093472 
  208500  0.047693204 
  208600   0.07288779 
  208700  0.078116385 
  208800  0.018319462 
  208900  0.082915348 
  209000    0.1053376 
  209100  0.084064995 
  209200  0.099914259 
  209300  0.077933028 
  209400  0.052062095 
  209500   0.10839864 
  209600  0.095177323 
  209700  0.070145431 
  209800  0.071896587 
  209900  0.026639354 
  210000  0.057509714 
  210100   0.07094608 
  210200  0.056640118 
  210300  0.048781108 
  210400  0.033759619 
  210500  0.036797722 
  210600  0.075903721 
  210700  0.084242016 
  210800  0.068595447 
  210900  0.073269061 
  211000  0.059511226 
  211100  0.090722258 
  211200   0.10293204 
  211300   0.10097326 
  211400  0.075784834 
  211500  0.057139612 
  211600  0.080880875 
  211700  0.071782965 
  211800  0.078947219 
  211900    0.0708407 
  212000  0.028417763 
  212100  0.035543464 
  212200  0.078241866 
  212300  0.047625841 
  212400  0.067072945 
  212500  0.071905242 
  212600  0.017803015 
  212700  0.085090407 
  212800  0.098205973 
  212900  0.067387353 
  213000  0.096354716 
  213100  0.073374857 
  213200  0.049809258 
  213300   0.10886263 
  213400  0.090387631 
  213500  0.058582601 
  213600  0.080047345 
  213700  0.035037041 
  213800  0.058618164 
  213900  0.080930237 
  214000  0.054624723 
  214100  0.054087881 
  214200  0.046310397 
  214300  0.047551016 
  214400  0.078590464 
  214500  0.084916393 
  214600  0.067334285 
  214700  0.077611895 
  214800  0.061683062 
  214900  0.086953731 
  215000  0.099986731 
  215100  0.082947953 
  215200   0.07473947 
  215300  0.056186275 
  215400  0.069416856 
  215500  0.067092018 
  215600   0.07194568 
  215700   0.05896376 
  215800  0.034093461 
  215900  0.042851007 
  216000  0.069228849 
  216100   0.05509763 
  216200  0.069377147 
  216300  0.076560756 
  216400  0.031765366 
  216500  0.094499041 
  216600  0.098680728 
  216700   0.07081956 
  216800   0.10683511 
  216900  0.075804471 
  217000  0.054300372 
  217100   0.10843435 
  217200  0.084444617 
  217300  0.050210822 
  217400  0.084568317 
  217500  0.028577338 
  217600   0.04615847 
  217700  0.078775175 
  217800  0.041213953 
  217900   0.04977986 
  218000  0.048736917 
  218100  0.042358061 
  218200  0.071279694 
  218300  0.088320141 
  218400  0.067082036 
  218500  0.084230572 
  218600  0.069518394 
  218700  0.087649492 
  218800   0.10697773 
  218900  0.085743675 
  219000  0.087173581 
  219100  0.063161242 
  219200  0.068791895 
  219300  0.071342495 
  219400  0.073837898 
  219500  0.055714966 
  219600  0.040707556 
  219700  0.039789851 
  219800  0.054303746 
  219900  0.058368113 
  220000  0.061806295 
  220100  0.068818728 
  220200  0.032218124 
  220300  0.084652235 
  220400  0.087987676 
  220500  0.073228964 
  220600   0.10704395 
  220700  0.071079088 
  220800  0.057478442 
  220900     0.107749 
  221000  0.086421003 
  221100   0.05763761 
  221200  0.095552509 
  221300  0.028959538 
  221400  0.049158256 
  221500  0.090423841 
  221600  0.042750696 
  221700  0.056989082 
  221800  0.055882878 
  221900  0.035876065 
  222000  0.069351131 
  222100  0.094568386 
  222200  0.060079767 
  222300  0.080606846 
  222400  0.064901084 
  222500  0.073752396 
  222600   0.10419946 
  222700  0.082328866 
  222800  0.081159708 
  222900  0.056688223 
  223000  0.061478424 
  223100  0.071415334 
  223200  0.077059506 
  223300    0.0568203 
  223400  0.047022188 
  223500   0.04014527 
  223600  0.055627508 
  223700  0.075997273 
  223800  0.067497674 
  223900  0.072187084 
  224000  0.042781821 
  224100  0.082122035 
  224200  0.091698596 
  224300  0.085293285 
  224400   0.10246994 
  224500   0.06350978 
  224600  0.056277091 
  224700  0.099266348 
  224800  0.082116466 
  224900  0.056493452 
  225000  0.083987627 
  225100  0.015801068 
  225200  0.044825602 
  225300  0.091307454 
  225400  0.038193969 
  225500  0.057192915 
  225600  0.055518587 
  225700  0.029933054 
  225800    0.0799432 
  225900   0.10788127 
  226000  0.060502506 
  226100  0.086598582 
  226200  0.072272535 
  226300  0.074308165 
  226400   0.11912055 
  226500   0.09052099 
  226600  0.075120603 
  226700  0.057316586 
  226800  0.059243179 
  226900  0.072205013 
  227000  0.077894592 
  227100  0.049464093 
  227200  0.036165428 
  227300  0.031012647 
  227400   0.05097705 
  227500  0.078712693 
  227600  0.059789114 
  227700  0.061349773 
  227800  0.043001007 
  227900  0.075365794 
  228000  0.099555687 
  228100  0.095060831 
  228200  0.095605918 
  228300   0.06405074 
  228400  0.066533146 
  228500   0.10421089 
  228600  0.093523654 
  228700  0.066297626 
  228800  0.076290777 
  228900  0.019870061 
  229000  0.053846717 
  229100  0.096812722 
  229200  0.037320666 
  229300  0.053736683 
  229400  0.047474917 
  229500   0.02312525 
  229600  0.086830644 
  229700   0.10372412 
  229800   0.04654875 
  229900  0.077964001 
  230000  0.067903446 
  230100  0.067519359 
  230200   0.12751226 
  230300  0.086384676 
  230400  0.060656863 
  230500    0.0628788 
  230600   0.06272539 
  230700  0.080376096 
  230800  0.087297467 
  230900  0.049427912 
  231000  0.034047333 
  231100   0.04311834 
  231200  0.062161658 
  231300  0.088248923 
  231400  0.060509747 
  231500  0.055044075 
  231600  0.047795729 
  231700  0.074602002 
  231800   0.10653247 
  231900  0.090891239 
  232000  0.077907015 
  232100  0.056390744 
  232200   0.06671606 
  232300  0.097555605 
  232400  0.091577607 
  232500  0.058480411 
  232600  0.056351389 
  232700  0.025704072 
  232800  0.059651013 
  232900  0.098238509 
  233000  0.038381409 
  233100   0.05304822 
  233200  0.048182792 
  233300   0.03641778 
  233400   0.10511946 
  233500   0.10501307 
  233600  0.046685507 
  233700  0.081381772 
  233800  0.075936384 
  233900  0.072578365 
  234000   0.13751636 
  234100  0.075596831 
  234200  0.045883115 
  234300  0.068080314 
  234400  0.058558716 
  234500  0.076797233 
  234600  0.081459809 
  234700  0.032251731 
  234800  0.021367311 
  234900  0.051479785 
  235000  0.060319411 
  235100  0.085021877 
  235200  0.056442563 
  235300  0.047274487 
  235400  0.057735738 
  235500  0.084818113 
  235600   0.11683248 
  235700  0.090676281 
  235800   0.07591703 
  235900  0.065060158 
  236000   0.08173956 
  236100   0.10290178 
  236200  0.096051432 
  236300  0.053746561 
  236400  0.046337321 
  236500  0.039339608 
  236600    0.0608463 
  236700  0.090514817 
  236800  0.030806528 
  236900   0.04078871 
  237000  0.040826966 
  237100  0.043126638 
  237200   0.10266872 
  237300  0.089365311 
  237400  0.040166885 
  237500   0.07805023 
  237600  0.080978393 
  237700  0.078127924 
  237800   0.14127784 
  237900  0.066119851 
  238000  0.046554243 
  238100  0.085592677 
  238200  0.065459906 
  238300  0.083870036 
  238400  0.085395162 
  238500  0.026538559 
  238600  0.026845579 
  238700  0.070766139 
  238800  0.057592185 
  238900  0.081173918 
  239000  0.052725157 
  239100  0.036878578 
  239200  0.063662721 
  239300  0.086652992 
  239400   0.10589502 
  239500  0.076767663 
  239600  0.066798585 
  239700  0.062892283 
  239800  0.085704976 
  239900  0.097752065 
  240000    0.0894252 
  240100  0.046904442 
  240200  0.045699337 
  240300  0.056897772 
  240400  0.065143558 
  240500  0.089582004 
  240600  0.035976932 
  240700  0.042929663 
  240800  0.052165919 
  240900  0.062178577 
  241000   0.10211852 
  241100  0.083402794 
  241200  0.044640036 
  241300  0.078745773 
  241400  0.085943216 
  241500  0.079101586 
  241600   0.12921455 
  241700  0.050800789 
  241800  0.043451043 
  241900  0.087552999 
  242000  0.057171361 
  242100  0.075960581 
  242200   0.07594852 
  242300  0.015197474 
  242400  0.033392787 
  242500  0.081756036 
  242600  0.050123041 
  242700   0.08140812 
  242800  0.058537835 
  242900  0.038496915 
  243000  0.082970584 
  243100  0.097856261 
  243200   0.10054331 
  243300  0.081403346 
  243400  0.073603526 
  243500   0.06916754 
  243600  0.094293928 
  243700  0.093639228 
  243800  0.079162037 
  243900  0.042877339 
  244000  0.044244689 
  244100  0.059060132 
  244200  0.055587832 
  244300  0.075004409 
  244400  0.030407927 
  244500  0.035298432 
  244600  0.054980015 
  244700  0.065359335 
  244800  0.090044522 
  244900  0.078732026 
  245000  0.052359394 
  245100  0.082150143 
  245200  0.095631873 
  245300  0.086381491 
  245400   0.12335486 
  245500  0.057163857 
  245600  0.056506543 
  245700  0.096508149 
  245800  0.059296477 
  245900  0.076983238 
  246000  0.073477221 
  246100   0.01414091 
  246200  0.042852692 
  246300  0.080538848 
  246400  0.036966478 
  246500  0.075492599 
  246600  0.055733087 
  246700  0.029336162 
  246800  0.087980314 
  246900  0.089989074 
  247000   0.08238919 
  247100  0.084222408 
  247200  0.073215277 
  247300  0.068433194 
  247400  0.099518234 
  247500  0.090502685 
  247600  0.074588825 
  247700  0.055529499 
  247800  0.052484174 
  247900  0.066083093 
  248000   0.06028035 
  248100  0.074495624 
  248200   0.03945597 
  248300  0.040606314 
  248400  0.063618157 
  248500  0.065624958 
  248600  0.081896165 
  248700  0.077156776 
  248800  0.055334695 
  248900   0.07534536 
  249000   0.09215054 
  249100  0.078946883 
  249200   0.10556997 
  249300  0.058848671 
  249400  0.054114289 
  249500  0.089457451 
  249600  0.054399996 
  249700  0.074057371 
  249800  0.070696142 
  249900  0.020444468 
  250000   0.05298327 
  250100  0.079847489 
  250200  0.040045791 
  250300  0.084107132 
  250400  0.066427545 
  250500  0.033732654 
  250600   0.10139718 
  250700  0.088291408 
  250800  0.078380242 
  250900  0.096837356 
  251000  0.070900495 
  251100  0.063654724 
  251200  0.098773637 
  251300  0.079827342 
  251400  0.063188481 
  251500  0.060772254 
  251600  0.040866734 
  251700  0.056080449 
  251800   0.05687836 
  251900   0.06485455 
  252000  0.041397572 
  252100    0.0414807 
  252200  0.064265063 
  252300  0.064106616 
  252400  0.085761615 
  252500  0.084649764 
  252600  0.066200164 
  252700  0.078379036 
  252800  0.099548639 
  252900  0.084770796 
  253000   0.10573471 
  253100  0.073562966 
  253200  0.053857843 
  253300  0.085788597 
  253400  0.055181987 
  253500  0.071833928 
  253600  0.065103271 
  253700  0.021164546 
  253800  0.045432768 
  253900  0.066414683 
  254000  0.037993825 
  254100  0.079345581 
  254200  0.062619491 
  254300  0.027024361 
  254400   0.10125884 
  254500  0.081355106 
  254600  0.079899853 
  254700   0.10773258 
  254800  0.067665351 
  254900  0.065535428 
  255000   0.10828073 
  255100  0.082484227 
  255200  0.069019278 
  255300  0.077096458 
  255400  0.034856637 
  255500  0.059243532 
  255600  0.067424608 
  255700  0.061781864 
  255800  0.045857835 
  255900  0.041101076 
  256000    0.0553161 
  256100  0.059804064 
  256200  0.086751067 
  256300  0.077281468 
  256400  0.061103375 
  256500   0.06774879 
  256600  0.093344545 
  256700   0.08239127 
  256800   0.10154226 
  256900  0.076411465 
  257000  0.045855949 
  257100  0.083731819 
  257200   0.06317067 
  257300  0.076713989 
  257400  0.069031316 
  257500  0.030525761 
  257600  0.045259993 
  257700  0.071622571 
  257800  0.053883821 
  257900  0.082828206 
  258000  0.065303488 
  258100  0.027866908 
  258200   0.10156139 
  258300  0.080587174 
  258400  0.082945003 
  258500   0.10466631 
  258600  0.053206673 
  258700  0.058734223 
  258800   0.10640457 
  258900  0.073980753 
  259000  0.064089492 
  259100  0.074190265 
  259200  0.017625012 
  259300  0.061014978 
  259400  0.076388035 
  259500  0.056124734 
  259600  0.051329848 
  259700  0.044634057 
  259800  0.053110618 
  259900   0.07471957 
  260000   0.10102046 
  260100  0.077094232 
  260200  0.067273779 
  260300  0.070909396 
  260400  0.097282071 
  260500  0.092093193 
  260600   0.10169981 
  260700  0.071610019 
  260800  0.036997784 
  260900  0.079846385 
  261000  0.064856839 
  261100  0.069633851 
  261200  0.059182081 
  261300  0.022078616 
  261400  0.033383577 
  261500    0.0719223 
  261600  0.059336652 
  261700  0.073824277 
  261800  0.061386599 
  261900  0.029450765 
  262000   0.10344897 
  262100  0.092158269 
  262200  0.091818849 
  262300   0.10417396 
  262400  0.053413964 
  262500   0.06922851 
  262600   0.11766795 
  262700  0.078881337 
  262800  0.067711772 
  262900  0.071351913 
  263000  0.011265157 
  263100   0.06934579 
  263200  0.081945371 
  263300  0.042337875 
  263400  0.047300591 
  263500  0.036300474 
  263600  0.042102353 
  263700  0.082975611 
  263800  0.096489043 
  263900   0.06007328 
  264000  0.064237178 
  264100  0.069300169 
  264200  0.096497377 
  264300   0.10318669 
  264400  0.097794096 
  264500  0.065901471 
  264600  0.042979066 
  264700  0.089053815 
  264800  0.077745563 
  264900  0.073515892 
  265000  0.059973603 
  265100  0.023311444 
  265200  0.039524503 
  265300  0.083511244 
  265400  0.065403588 
  265500  0.063495911 
  265600  0.056722551 
  265700  0.029497533 
  265800    0.0995391 
  265900  0.096795188 
  266000  0.081220459 
  266100  0.087293401 
  266200  0.046359705 
  266300  0.070592185 
  266400    0.1159689 
  266500  0.075195314 
  266600  0.061023207 
  266700  0.063129098 
  266800  0.015884571 
  266900  0.082172015 
  267000  0.089990698 
  267100  0.036640405 
  267200  0.054792428 
  267300  0.041566155 
  267400   0.05081009 
  267500   0.10355811 
  267600  0.094761826 
  267700  0.051817277 
  267800  0.070956745 
  267900  0.073202668 
  268000  0.095150124 
  268100   0.10993414 
  268200  0.079362097 
  268300  0.051660572 
  268400  0.045630796 
  268500  0.084650311 
  268600  0.074006841 
  268700  0.063296363 
  268800  0.047178748 
  268900  0.017446184 
  269000  0.047658051 
  269100   0.08805193 
  269200   0.06598689 
  269300   0.05687929 
  269400  0.061187432 
  269500  0.041967053 
  269600   0.10917981 
  269700   0.11114939 
  269800  0.076982075 
  269900  0.086025415 
  270000  0.056833566 
  270100  0.081545506 
  270200   0.11728075 
  270300  0.073896182 
  270400  0.050416987 
  270500   0.05526334 
  270600  0.022130128 
  270700  0.080666156 
  270800  0.081430973 
  270900  0.019561225 
  271000   0.04969663 
  271100  0.036914149 
  271200  0.053088977 
  271300   0.10754204 
  271400  0.080941056 
  271500  0.044523155 
  271600  0.080912769 
  271700  0.080522712 
  271800    0.0993318 
  271900   0.12151499 
  272000  0.068182737 
  272100  0.056981809 
  272200  0.066176648 
  272300   0.08868398 
  272400  0.078325404 
  272500   0.06304681 
  272600  0.040616524 
  272700  0.021559278 
  272800  0.060017954 
  272900  0.081375221 
  273000  0.057993807 
  273100  0.045323433 
  273200  0.056746273 
  273300  0.043984233 
  273400   0.10565419 
  273500   0.10517226 
  273600  0.060070503 
  273700  0.081253646 
  273800  0.062836061 
  273900  0.085246464 
  274000   0.11435071 
  274100  0.073644614 
  274200  0.045348713 
  274300  0.062987574 
  274400  0.040867594 
  274500  0.084112928 
  274600  0.083387037 
  274700  0.019843189 
  274800  0.057050504 
  274900  0.046153696 
  275000  0.063101533 
  275100   0.10678082 
  275200  0.069555499 
  275300  0.041860118 
  275400  0.086170696 
  275500  0.077740009 
  275600  0.091645467 
  275700   0.11518335 
  275800  0.046725244 
  275900  0.056796669 
  276000  0.073262573 
  276100  0.076695659 
  276200  0.073476858 
  276300   0.05956301 
  276400  0.033633132 
  276500  0.033713147 
  276600  0.073920589 
  276700  0.075193719 
  276800  0.062723035 
  276900  0.051347757 
  277000  0.065198388 
  277100  0.060048889 
  277200   0.11138007 
  277300   0.10296606 
  277400  0.057503592 
  277500  0.086667674 
  277600  0.069018399 
  277700  0.083431383 
  277800   0.10523763 
  277900   0.06475014 
  278000  0.034404801 
  278100  0.063309833 
  278200  0.041772049 
  278300  0.069111258 
  278400  0.074273211 
  278500  0.014627251 
  278600  0.055532313 
  278700  0.052403813 
  278800  0.066001804 
  278900   0.10159345 
  279000  0.069156812 
  279100  0.051663128 
  279200  0.098307078 
  279300  0.084776724 
  279400  0.095771194 
  279500   0.11828388 
  279600  0.045931953 
  279700  0.070131981 
  279800  0.083048452 
  279900  0.067073667 
  280000  0.073058033 
  280100  0.056967513 
  280200   0.02509356 
  280300   0.04089492 
  280400  0.069911494 
  280500  0.055309643 
  280600  0.059968672 
  280700  0.047793868 
  280800  0.058281081 
  280900  0.065229919 
  281000   0.10357296 
  281100  0.093051497 
  281200  0.061453496 
  281300    0.0924294 
  281400  0.074337118 
  281500  0.086647978 
  281600   0.10649066 
  281700  0.067885698 
  281800  0.042851647 
  281900  0.075152937 
  282000  0.048471178 
  282100  0.065260667 
  282200  0.077946966 
  282300  0.018997041 
  282400  0.055699258 
  282500   0.05810206 
  282600  0.059116733 
  282700  0.090881921 
  282800  0.066450408 
  282900  0.050348284 
  283000  0.092159872 
  283100  0.078210844 
  283200  0.086552715 
  283300   0.11007602 
  283400  0.044336614 
  283500  0.072703806 
  283600  0.083198154 
  283700  0.058627006 
  283800  0.079408722 
  283900  0.061480449 
  284000  0.028523996 
  284100  0.056328101 
  284200  0.071900383 
  284300  0.053273711 
  284400   0.07478287 
  284500  0.055424041 
  284600  0.057219626 
  284700  0.077129327 
  284800  0.095874958 
  284900  0.087627787 
  285000  0.068835326 
  285100  0.086425044 
  285200  0.066290827 
  285300  0.080372926 
  285400  0.096456008 
  285500  0.059322032 
  285600  0.043026328 
  285700  0.067982778 
  285800   0.04201877 
  285900  0.059172713 
  286000  0.080399768 
  286100  0.022683664 
  286200  0.056993894 
  286300  0.066921599 
  286400  0.058469955 
  286500  0.097494208 
  286600  0.079292277 
  286700  0.058457937 
  286800  0.094540674 
  286900  0.085408383 
  287000   0.08755279 
  287100   0.11223033 
  287200  0.050687022 
  287300  0.068233115 
  287400  0.078528096 
  287500  0.049800245 
  287600   0.07906815 
  287700  0.054273833 
  287800  0.020762546 
  287900  0.052313672 
  288000  0.060136989 
  288100  0.047028903 
  288200  0.079984358 
  288300  0.051697807 
  288400  0.049684099 
  288500  0.087512892 
  288600  0.090151345 
  288700  0.093993475 
  288800  0.084335598 
  288900  0.083861329 
  289000  0.069966832 
  289100  0.091645808 
  289200  0.099695744 
  289300  0.064633217 
  289400  0.053432616 
  289500  0.060582736 
  289600  0.043176508 
  289700  0.061129949 
  289800  0.079946286 
  289900  0.019094669 
  290000  0.049257018 
  290100  0.061768608 
  290200  0.048967644 
  290300  0.096958566 
  290400  0.076077812 
  290500  0.049611882 
  290600  0.085860216 
  290700  0.087405306 
  290800  0.084570411 
  290900   0.11517227 
  291000  0.055785796 
  291100  0.062341063 
  291200  0.084430082 
  291300  0.057490473 
  291400  0.088986171 
  291500  0.058664099 
  291600  0.025358287 
  291700   0.05567431 
  291800  0.064485168 
  291900  0.054788967 
  292000  0.086043564 
  292100  0.046221737 
  292200  0.042361341 
  292300  0.092998045 
  292400  0.080364134 
  292500  0.093648929 
  292600  0.081901624 
  292700  0.064104483 
  292800  0.064427358 
  292900  0.094443349 
  293000  0.090485802 
  293100  0.062218024 
  293200  0.053828889 
  293300   0.04724853 
  293400  0.052257023 
  293500   0.07107863 
  293600  0.081442029 
  293700  0.023923323 
  293800  0.053333974 
  293900  0.067836824 
  294000  0.059931812 
  294100   0.10956182 
  294200  0.077184902 
  294300  0.047805358 
  294400  0.086679147 
  294500  0.093917992 
  294600  0.082749727 
  294700   0.11338442 
  294800  0.047784192 
  294900  0.046540086 
  295000  0.084229958 
  295100  0.055600749 
  295200  0.080733671 
  295300  0.049625257 
  295400  0.016976299 
  295500  0.049871952 
  295600  0.069818915 
  295700  0.059457257 
  295800  0.085021295 
  295900  0.043714161 
  296000  0.045704676 
  296100   0.10739133 
  296200  0.086987667 
  296300   0.10345729 
  296400  0.085651501 
  296500  0.058670702 
  296600  0.076336812 
  296700   0.10692974 
  296800  0.085395307 
  296900  0.062475476 
  297000  0.049427633 
  297100   0.03403738 
  297200  0.061259367 
  297300  0.070379681 
  297400  0.064621674 
  297500  0.017507968 
  297600  0.044863593 
  297700  0.062338599 
  297800  0.065752968 
  297900   0.10688004 
  298000  0.065592796 
  298100  0.045458277 
  298200  0.091814553 
  298300   0.10254556 
  298400  0.088734956 
  298500   0.11568289 
  298600  0.047058518 
  298700  0.049275904 
  298800   0.10127017 
  298900  0.065029371 
  299000  0.078953595 
  299100  0.050728024 
  299200  0.014935661 
  299300  0.052790394 
  299400  0.079448219 
  299500  0.056315746 
  299600  0.072180762 
  299700  0.036270145 
  299800  0.041822859 
  299900   0.10841779 
  300000   0.08344247 
  300100  0.093093892 
  300200  0.074687633 
  300300  0.049799043 
  300400  0.084933735 
  300500   0.11123688 
  300600  0.077659302 
  300700  0.063110893 
  300800  0.049292721 
  300900   0.03721229 
  301000  0.082447722 
  301100  0.076587525 
  301200  0.056552653 
  301300  0.028390407 
  301400    0.0491244 
  301500  0.070087065 
  301600  0.080483789 
  301700   0.10018676 
  301800  0.054303263 
  301900  0.047833217 
  302000  0.093620342 
  302100   0.09977497 
  302200  0.084668627 
  302300  0.099006383 
  302400  0.035087181 
  302500  0.047092619 
  302600    0.1052645 
  302700   0.05924562 
  302800  0.067075481 
  302900  0.048093758 
  303000   0.01301079 
  303100  0.063366095 
  303200  0.091311509 
  303300  0.055070524 
  303400  0.068888385 
  303500  0.047370486 
  303600  0.052483918 
  303700   0.12129834 
  303800  0.091319366 
  303900  0.086246496 
  304000  0.075064166 
  304100  0.053557702 
  304200  0.094445143 
  304300   0.10828459 
  304400   0.06533731 
  304500  0.053868094 
  304600  0.042246588 
  304700  0.035105993 
  304800   0.08565497 
  304900  0.063855304 
  305000  0.037032666 
  305100  0.033239367 
  305200  0.045614064 
  305300  0.074718213 
  305400  0.088600805 
  305500  0.088695199 
  305600  0.052184308 
  305700  0.064345563 
  305800   0.10308736 
  305900   0.10573865 
  306000  0.093071025 
  306100  0.091043833 
  306200  0.042536197 
  306300  0.060980464 
  306400   0.11157751 
  306500  0.055018656 
  306600  0.059635756 
  306700  0.045475528 
  306800  0.010836377 
  306900  0.069010195 
  307000  0.085571654 
  307100   0.03934459 
  307200  0.056859642 
  307300  0.050018349 
  307400  0.049405611 
  307500   0.12131368 
  307600  0.086675785 
  307700  0.071307737 
  307800    0.0794979 
  307900  0.061892192 
  308000    0.1021497 
  308100   0.10855743 
  308200  0.064667287 
  308300  0.055790634 
  308400  0.054017192 
  308500  0.047654559 
  308600  0.093149214 
  308700  0.060357964 
  308800  0.031998905 
  308900  0.046431164 
  309000  0.045729706 
  309100  0.078390272 
  309200  0.086399156 
  309300  0.070576342 
  309400  0.047865701 
  309500  0.071507971 
  309600  0.094235763 
  309700  0.097091789 
  309800  0.087674404 
  309900  0.072075314 
  310000  0.048309852 
  310100  0.067640367 
  310200   0.10596848 
  310300  0.050958774 
  310400  0.059800974 
  310500  0.049377056 
  310600  0.022330566 
  310700  0.082900498 
  310800  0.084982271 
  310900  0.039892713 
  311000  0.063762531 
  311100  0.064074743 
  311200  0.053792388 
  311300   0.12571168 
  311400  0.082306553 
  311500  0.060847259 
  311600   0.08643256 
  311700  0.062469932 
  311800  0.093859556 
  311900  0.098044405 
  312000  0.053714897 
  312100   0.04612327 
  312200  0.057152703 
  312300  0.044387297 
  312400  0.084059561 
  312500  0.053220256 
  312600  0.029068106 
  312700  0.057075192 
  312800  0.049199374 
  312900  0.084203744 
  313000  0.088979764 
  313100  0.069209875 
  313200  0.061375513 
  313300  0.088278357 
  313400  0.093575618 
  313500   0.10110075 
  313600  0.091622003 
  313700  0.065010467 
  313800  0.061682192 
  313900  0.069936022 
  314000  0.091850124 
  314100  0.046426239 
  314200  0.054507289 
  314300  0.041556663 
  314400   0.02385424 
  314500  0.076940889 
  314600  0.068635113 
  314700  0.035716855 
  314800  0.064048305 
  314900   0.06560685 
  315000  0.053151481 
  315100   0.12596964 
  315200   0.07986951 
  315300  0.063136078 
  315400   0.10192077 
  315500  0.068426638 
  315600  0.094310678 
  315700   0.10446597 
  315800  0.057160534 
  315900  0.051287268 
  316000  0.069970485 
  316100  0.043029074 
  316200  0.078180693 
  316300  0.054507101 
  316400  0.026886642 
  316500  0.058142907 
  316600  0.045295632 
  316700  0.074773596 
  316800  0.080700602 
  316900  0.061828292 
  317000  0.061836595 
  317100  0.086036268 
  317200  0.081933444 
  317300  0.098789334 
  317400  0.091022334 
  317500  0.061282803 
  317600  0.073596455 
  317700  0.071305017 
  317800  0.085153279 
  317900  0.059350501 
  318000  0.060819791 
  318100  0.045710523 
  318200  0.037910574 
  318300   0.07750991 
  318400   0.06620344 
  318500  0.046975761 
  318600    0.0679019 
  318700  0.063164407 
  318800  0.053688497 
  318900   0.11904951 
  319000  0.073428815 
  319100  0.060854598 
  319200  0.099908304 
  319300  0.056587884 
  319400  0.083769989 
  319500   0.10220582 
  319600  0.049693541 
  319700   0.04984051 
  319800  0.071807081 
  319900  0.036288303 
  320000  0.076874803 
  320100  0.065687627 
  320200  0.029574848 
  320300  0.065143042 
  320400  0.053929846 
  320500    0.0756816 
  320600   0.09094415 
  320700  0.070639541 
  320800   0.06832243 
  320900  0.087378101 
  321000  0.080621262 
  321100    0.1001919 
  321200  0.091402426 
  321300  0.055826181 
  321400  0.071500274 
  321500  0.061118618 
  321600  0.071580634 
  321700   0.06367685 
  321800  0.050283031 
  321900  0.036614436 
  322000  0.038189032 
  322100  0.067856687 
  322200  0.063764826 
  322300  0.057746856 
  322400  0.065764522 
  322500   0.06137268 
  322600    0.0652796 
  322700   0.11994868 
  322800  0.083521501 
  322900  0.071741751 
  323000   0.10306895 
  323100  0.057220034 
  323200  0.090804679 
  323300   0.10944835 
  323400  0.048100084 
  323500  0.051649787 
  323600  0.067381851 
  323700  0.029001312 
  323800   0.07471479 
  323900  0.067965887 
  324000  0.015806144 
  324100  0.058329359 
  324200  0.050070191 
  324300  0.064978292 
  324400  0.094680431 
  324500  0.068061253 
  324600  0.061451525 
  324700  0.085042339 
  324800  0.085066273 
  324900   0.10362816 
  325000  0.099327363 
  325100  0.057484467 
  325200  0.074511112 
  325300  0.067208418 
  325400  0.077334424 
  325500  0.079158419 
  325600  0.047486742 
  325700  0.037278087 
  325800  0.043554623 
  325900  0.066032022 
  326000  0.066581778 
  326100  0.062493284 
  326200  0.051332912 
  326300  0.053020389 
  326400  0.069556036 
  326500   0.10784794 
  326600  0.083308392 
  326700  0.065463735 
  326800  0.088679078 
  326900  0.053301303 
  327000  0.095994545 
  327100   0.10816423 
  327200  0.045303021 
  327300   0.05382549 
  327400  0.065481911 
  327500  0.037401196 
  327600  0.086554389 
  327700  0.077085787 
  327800  0.012125045 
  327900  0.066328707 
  328000   0.05895894 
  328100  0.068287316 
  328200   0.10665848 
  328300   0.06444266 
  328400  0.052531983 
  328500  0.085841131 
  328600  0.087681215 
  328700   0.09625253 
  328800  0.096220785 
  328900  0.042906816 
  329000  0.063019232 
  329100  0.067276314 
  329200   0.07372886 
  329300  0.077600393 
  329400  0.035794284 
  329500  0.033539311 
  329600   0.04787343 
  329700  0.071630679 
  329800  0.074122503 
  329900   0.06852679 
  330000  0.045802268 
  330100  0.062592281 
  330200  0.088078907 
  330300   0.10901027 
  330400  0.093901928 
  330500  0.064707834 
  330600  0.082100708 
  330700   0.06273707 
  330800   0.10354884 
  330900  0.099072481 
  331000  0.038519688 
  331100  0.045911109 
  331200  0.054953006 
  331300  0.040814887 
  331400  0.083167772 
  331500  0.064944224 
  331600 -0.0014426348 
  331700  0.066207534 
  331800  0.060433007 
  331900  0.069723682 
  332000    0.1116952 
  332100  0.056963313 
  332200  0.050735665 
  332300   0.10079867 
  332400  0.099067306 
  332500   0.09845128 
  332600   0.10378879 
  332700  0.039370141 
  332800  0.067667414 
  332900  0.084135655 
  333000  0.075702923 
  333100  0.074554611 
  333200  0.029623655 
  333300  0.029508381 
  333400  0.050929949 
  333500  0.072918807 
  333600  0.066549348 
  333700  0.057029302 
  333800  0.032176678 
  333900   0.06380575 
  334000  0.092388801 
  334100  0.099007513 
  334200  0.090895093 
  334300  0.056428058 
  334400  0.077354606 
  334500  0.078763122 
  334600    0.1097082 
  334700  0.092624895 
  334800  0.043228941 
  334900  0.049294149 
  335000  0.062013777 
  335100  0.060281264 
  335200  0.085747615 
  335300   0.05859246 
  335400 0.0016210766 
  335500  0.073078861 
  335600  0.065920402 
  335700   0.07152439 
  335800   0.10566928 
  335900  0.042035554 
  336000  0.046672782 
  336100   0.10690801 
  336200  0.092581161 
  336300  0.086593975 
  336400  0.095437601 
  336500  0.026717927 
  336600  0.068684828 
  336700  0.095320806 
  336800  0.067335911 
  336900  0.068536661 
  337000  0.032145721 
  337100  0.032614972 
  337200  0.066570916 
  337300   0.08375324 
  337400  0.065176997 
  337500   0.05798456 
  337600  0.039886339 
  337700  0.076730897 
  337800   0.10318146 
  337900  0.094898681 
  338000  0.086731588 
  338100  0.052141191 
  338200  0.075500422 
  338300  0.088471528 
  338400  0.099092733 
  338500  0.074931364 
  338600  0.037280811 
  338700  0.041665314 
  338800   0.06008049 
  338900  0.065357604 
  339000  0.071454979 
  339100  0.045906952 
  339200 0.0092847385 
  339300  0.076975572 
  339400  0.074549513 
  339500  0.076751946 
  339600   0.10279366 
  339700  0.042896413 
  339800  0.062562302 
  339900   0.12234386 
  340000  0.094091145 
  340100  0.087543607 
  340200    0.0946854 
  340300  0.027497614 
  340400  0.077323053 
  340500   0.10253546 
  340600  0.050601755 
  340700  0.059739604 
  340800  0.030410428 
  340900  0.025398311 
  341000  0.070781464 
  341100  0.076034134 
  341200  0.047329744 
  341300  0.051732271 
  341400  0.044287849 
  341500   0.07727565 
  341600   0.10705852 
  341700  0.088156551 
  341800  0.082937578 
  341900  0.060162742 
  342000  0.084956572 
  342100   0.10281005 
  342200  0.096043931 
  342300  0.074110172 
  342400  0.045758665 
  342500  0.049567406 
  342600  0.068415599 
[...]
  638100  0.058392401 
  638200  0.065551129 
  638300  0.047216911 
  638400 -0.0011377961 
  638500   0.06920557 
  638600  0.081167575 
  638700  0.060603359 
  638800   0.08539561 
  638900  0.041467448 
  639000  0.060109054 
  639100    0.1154694 
  639200   0.10056546 
  639300  0.087703446 
  639400  0.082616855 
  639500  0.043040727 
  639600  0.091129504 
  639700   0.10458998 
  639800  0.059992831 
  639900  0.068395929 
  640000  0.025651441 
  640100  0.037144468 
  640200  0.085668843 
  640300  0.067094878 
  640400  0.043795698 
  640500  0.049628706 
  640600  0.038163742 
  640700   0.07233565 
  640800   0.11125011 
  640900  0.075131716 
  641000  0.065471285 
  641100  0.062938504 
  641200  0.084504856 
  641300  0.097574763 
  641400   0.09985196 
  641500  0.073888657 
  641600  0.031676616 
  641700  0.064628293 
  641800   0.08112924 
  641900  0.066211878 
  642000  0.066035752 
  642100  0.044254436 
  642200  0.013844763 
  642300  0.082520149 
  642400  0.089326058 
  642500  0.054933727 
  642600  0.085124253 
  642700  0.042475903 
  642800  0.064016959 
  642900   0.12093302 
  643000  0.091254738 
  643100  0.071101112 
  643200  0.076018254 
  643300  0.044508205 
  643400   0.08431621 
  643500   0.10297125 
  643600  0.044640774 
  643700  0.057667431 
  643800  0.029440708 
  643900  0.043467626 
  644000  0.089885137 
  644100  0.062411045 
  644200   0.04451664 
  644300  0.055652685 
  644400   0.05144043 
  644500  0.085378705 
  644600   0.11830979 
  644700  0.067005434 
  644800  0.073413447 
  644900  0.075249717 
  645000   0.08394907 
  645100   0.10603732 
  645200  0.089708477 
  645300  0.058962497 
  645400  0.036281587 
  645500  0.066984598 
  645600  0.068378145 
  645700   0.06185898 
  645800  0.051433218 
  645900  0.032198938 
  646000  0.023257179 
  646100  0.081229198 
  646200   0.08294591 
  646300  0.049185683 
  646400  0.085948477 
  646500  0.047758754 
  646600  0.076466247 
  646700   0.12850636 
  646800  0.088890922 
  646900  0.071936387 
  647000  0.087741642 
  647100  0.056664428 
  647200  0.087439454 
  647300   0.10809061 
  647400  0.036239191 
  647500  0.056383278 
  647600  0.038959717 
  647700   0.04263554 
  647800    0.0826551 
  647900  0.052938274 
  648000  0.035277047 
  648100  0.052621162 
  648200  0.053426559 
  648300  0.079000473 
  648400   0.10873068 
  648500  0.055760953 
  648600  0.076334019 
  648700  0.080787974 
  648800  0.082023503 
  648900   0.11087421 
  649000  0.084724265 
  649100  0.058623142 
  649200  0.054900618 
  649300  0.074990013 
  649400  0.066742089 
  649500   0.07139356 
  649600   0.04968345 
  649700  0.035821499 
  649800  0.041332125 
  649900  0.077551433 
  650000  0.075654668 
  650100   0.04938399 
  650200  0.081103905 
  650300  0.046656451 
  650400  0.077578137 
  650500   0.11688869 
  650600  0.074826367 
  650700  0.067332383 
  650800  0.086970032 
  650900  0.053673571 
  651000  0.082175513 
  651100   0.10437566 
  651200  0.029889121 
  651300  0.061262287 
  651400  0.051992184 
  651500  0.042789212 
  651600  0.085205783 
  651700  0.059944242 
  651800  0.039760335 
  651900  0.065260464 
  652000  0.064730417 
  652100  0.077969271 
  652200   0.10866024 
  652300  0.058578231 
  652400   0.07912845 
  652500  0.082985791 
  652600  0.074923864 
  652700   0.10409903 
  652800  0.074499001 
  652900  0.051839694 
  653000  0.057619621 
  653100  0.063306188 
  653200  0.055133857 
  653300  0.070376576 
  653400  0.042244673 
  653500   0.03623595 
  653600  0.052341287 
  653700  0.069153828 
  653800  0.075933068 
  653900  0.063038088 
  654000  0.082683274 
  654100  0.058200311 
  654200  0.087968186 
  654300   0.11500922 
  654400  0.079145855 
  654500  0.079268255 
  654600  0.089107123 
  654700  0.054255449 
  654800  0.081322084 
  654900    0.0982061 
  655000  0.026437106 
  655100  0.060061148 
  655200  0.049635241 
  655300  0.028001545 
  655400  0.079493614 
  655500  0.055903496 
  655600  0.032192756 
  655700  0.066179147 
  655800  0.061617193 
  655900  0.069621909 
  656000    0.1104555 
  656100  0.065933129 
  656200  0.079305957 
  656300  0.091026262 
  656400  0.076338375 
  656500   0.10833634 
  656600  0.083256686 
  656700   0.05914613 
  656800    0.0659372 
  656900  0.061444456 
  657000  0.057901681 
  657100  0.075609365 
  657200  0.041809909 
  657300  0.035135089 
  657400  0.054281201 
  657500  0.054483582 
  657600  0.073743281 
  657700   0.06640446 
  657800  0.067572594 
  657900  0.056544271 
  658000  0.082207955 
  658100   0.10310279 
  658200  0.080254504 
  658300  0.083755953 
  658400   0.07933625 
  658500  0.056178595 
  658600  0.085178478 
  658700   0.09809527 
  658800  0.037345928 
  658900  0.066001769 
  659000  0.053464761 
  659100   0.02953342 
  659200  0.091947209 
  659300  0.062136179 
  659400  0.034985485 
  659500  0.071018361 
  659600  0.059367561 
  659700  0.066411738 
  659800   0.11447432 
  659900    0.0653403 
  660000  0.065414998 
  660100  0.089143205 
  660200  0.065561951 
  660300   0.10210397 
  660400  0.082576484 
  660500  0.050500548 
  660600  0.057915317 
  660700  0.056606503 
  660800  0.059943515 
  660900  0.078364966 
  661000  0.045224751 
  661100  0.034984476 
  661200  0.061443676 
  661300  0.056357565 
  661400  0.088370111 
  661500  0.078447767 
  661600  0.063333846 
  661700  0.066326172 
  661800  0.086340766 
  661900   0.10354991 
  662000  0.088975841 
  662100  0.083744831 
  662200  0.063117872 
  662300  0.058196394 
  662400  0.081823987 
  662500  0.088259267 
  662600  0.037385366 
  662700  0.052580952 
  662800  0.041642451 
  662900  0.027226805 
  663000  0.095036981 
  663100  0.056578911 
  663200  0.033134242 
  663300  0.070060911 
  663400  0.059846196 
  663500  0.074930701 
  663600   0.12648364 
  663700  0.068682131 
  663800  0.062924592 
  663900   0.10202254 
  664000  0.069881094 
  664100   0.11098545 
  664200   0.09115825 
  664300  0.044150786 
  664400  0.054344979 
  664500  0.061311511 
  664600  0.060570745 
  664700  0.074609587 
  664800  0.039832969 
  664900  0.020782942 
  665000   0.05798752 
  665100  0.053071543 
  665200  0.088065774 
  665300  0.071885301 
  665400  0.049320694 
  665500  0.067196715 
  665600   0.08782161 
  665700   0.10535136 
  665800  0.096191061 
  665900  0.080953613 
  666000  0.056672562 
  666100  0.075432507 
  666200  0.090048356 
  666300   0.09135271 
  666400  0.048027196 
  666500  0.047174599 
  666600  0.043785027 
  666700  0.042093069 
  666800  0.099038406 
  666900  0.050517506 
  667000  0.030977153 
  667100  0.062942542 
  667200  0.057775853 
  667300  0.078576719 
  667400   0.12069059 
  667500  0.053736049 
  667600  0.051831338 
  667700   0.10301544 
  667800  0.066108661 
  667900   0.11089987 
  668000  0.088448038 
  668100  0.031466211 
  668200  0.056484663 
  668300  0.074808171 
  668400  0.064597988 
  668500  0.078658356 
  668600  0.043530906 
  668700  0.019388002 
  668800  0.072358598 
  668900  0.067366261 
  669000  0.091440721 
  669100  0.071317444 
  669200  0.045239384 
  669300  0.071688918 
  669400  0.093277564 
  669500   0.10352801 
  669600  0.090437663 
  669700  0.065640263 
  669800  0.046402729 
  669900  0.081337613 
  670000  0.083891155 
  670100  0.079751909 
  670200   0.04345306 
  670300  0.032577834 
  670400  0.045682989 
  670500  0.056586569 
  670600  0.094393922 
  670700  0.047405003 
  670800  0.036015844 
  670900      0.06609 
  671000  0.071957151 
  671100  0.094967416 
  671200   0.11886584 
  671300  0.051999398 
  671400  0.059224912 
  671500   0.11230114 
  671600  0.071947031 
  671700    0.1110663 
  671800  0.080843979 
  671900  0.018123123 
  672000  0.060182912 
  672100  0.078132578 
  672200  0.053323126 
  672300  0.068820782 
  672400  0.032475807 
  672500 0.0093224835 
  672600  0.079178936 
  672700  0.070691638 
  672800  0.078835529 
  672900  0.068774645 
  673000  0.044208861 
  673100  0.079714837 
  673200   0.10678213 
  673300   0.10633862 
  673400  0.089697148 
  673500  0.066253236 
  673600  0.056989769 
  673700  0.096775152 
  673800   0.08841056 
  673900  0.075004692 
  674000  0.044694163 
  674100   0.02728853 
  674200  0.054020323 
  674300  0.064909256 
  674400  0.077452483 
  674500  0.038641979 
  674600  0.031693327 
  674700  0.059980506 
  674800  0.074952645 
  674900   0.09373358 
  675000   0.09803279 
  675100  0.046670844 
  675200  0.063568204 
  675300   0.11370132 
  675400  0.077316691 
  675500   0.10792286 
  675600  0.076268347 
  675700  0.020296335 
  675800  0.078809783 
  675900  0.086946632 
  676000  0.053491863 
  676100  0.071428444 
  676200  0.034480636 
  676300  0.015791686 
  676400  0.094280941 
  676500  0.072920559 
  676600  0.063931033 
  676700  0.070383996 
  676800  0.040484529 
  676900  0.080389407 
  677000   0.10860123 
  677100  0.091663233 
  677200  0.074255931 
  677300  0.061756347 
  677400   0.05792136 
  677500  0.095542039 
  677600  0.084159043 
  677700  0.062393123 
  677800  0.045641327 
  677900  0.029953066 
  678000  0.067125388 
  678100   0.07309791 
  678200  0.069740901 
  678300  0.045786869 
  678400  0.042170406 
  678500  0.069520621 
  678600   0.08806252 
  678700  0.097189523 
  678800  0.085167962 
  678900  0.055698524 
  679000  0.070147119 
  679100   0.11034854 
  679200  0.077586721 
  679300  0.093482096 
  679400  0.063756946 
  679500  0.019066507 
  679600  0.081891092 
  679700  0.074995568 
  679800  0.043350616 
  679900  0.063108801 
  680000  0.030699502 
  680100  0.020962402 
  680200   0.10199214 
  680300  0.069338639 
  680400  0.056482676 
  680500  0.084155327 
  680600  0.046690582 
  680700  0.092183408 
  680800   0.11941453 
  680900  0.086991365 
  681000  0.075158518 
  681100  0.075486322 
  681200  0.063994096 
  681300  0.095619271 
  681400  0.083327093 
  681500  0.049138973 
  681600  0.046653454 
  681700  0.030208157 
  681800  0.064812912 
  681900  0.063782207 
  682000  0.054034762 
  682100  0.042171583 
  682200  0.041443252 
  682300  0.067698546 
  682400  0.087092689 
  682500  0.090728639 
  682600  0.074951214 
  682700  0.069804828 
  682800  0.076207296 
  682900   0.11085066 
  683000  0.086127959 
  683100  0.090147931 
  683200  0.068647494 
  683300  0.035891066 
  683400  0.089449169 
  683500  0.071272527 
  683600  0.047261952 
  683700  0.061872716 
  683800  0.033418614 
  683900  0.027338228 
  684000   0.09886212 
  684100  0.057394176 
  684200  0.048190118 
  684300  0.086799702 
  684400  0.039172405 
  684500  0.088895538 
  684600   0.11347252 
  684700  0.071721314 
  684800  0.073071566 
  684900  0.083351631 
  685000  0.059354712 
  685100  0.094223289 
  685200  0.086537921 
  685300  0.044277088 
  685400  0.059702371 
  685500  0.041747638 
  685600  0.066779797 
  685700  0.068089301 
  685800  0.057950932 
  685900  0.049850784 
  686000  0.050987918 
  686100   0.07060965 
  686200  0.085916483 
  686300  0.086613672 
  686400  0.070099523 
  686500  0.075888093 
  686600  0.069280063 
  686700  0.099324577 
  686800  0.082149951 
  686900  0.076464718 
  687000  0.064448488 
  687100  0.039607778 
  687200  0.078363406 
  687300  0.063136683 
  687400  0.050876519 
  687500  0.059622293 
  687600  0.039331795 
  687700  0.037198115 
  687800  0.097658513 
  687900  0.060708948 
  688000  0.059678583 
  688100  0.097350355 
  688200  0.044124801 
  688300  0.095480014 
  688400   0.11612203 
  688500  0.068790275 
  688600  0.080663198 
  688700  0.086823133 
  688800  0.048499079 
  688900  0.090259232 
  689000  0.082617261 
  689100  0.032069171 
  689200  0.060513883 
  689300  0.036612346 
  689400  0.050293504 
  689500  0.066705991 
  689600  0.055100031 
  689700  0.046698477 
  689800  0.054805044 
  689900  0.068809437 
  690000   0.08515938 
  690100  0.093014304 
  690200  0.077483755 
  690300  0.084726271 
  690400   0.07358122 
  690500   0.10139346 
  690600  0.092680939 
  690700  0.078697378 
  690800  0.071153264 
  690900  0.045938818 
  691000  0.069401305 
  691100  0.063828983 
  691200  0.054314028 
  691300  0.052013319 
  691400  0.035934482 
  691500  0.034102008 
  691600  0.082389139 
  691700  0.059160204 
  691800   0.05951093 
  691900  0.088026536 
  692000  0.039544625 
  692100  0.092481268 
  692200   0.11418419 
  692300  0.068897635 
  692400  0.088979083 
  692500  0.085920369 
  692600  0.047257698 
  692700  0.099981867 
  692800  0.090757304 
  692900  0.035078215 
  693000  0.071166476 
  693100  0.039735319 
  693200  0.045907944 
  693300  0.081596911 
  693400  0.056312348 
  693500  0.043020633 
  693600  0.056790092 
  693700  0.061712623 
  693800  0.079453059 
  693900  0.095235206 
  694000  0.070681467 
  694100  0.073032988 
  694200  0.068271123 
  694300  0.092112472 
  694400  0.093870153 
  694500  0.073949542 
  694600   0.06793996 
  694700  0.043983567 
  694800  0.065050065 
  694900  0.073607017 
  695000  0.062514495 
  695100  0.052655642 
  695200  0.041457261 
  695300   0.04300799 
  695400  0.083273118 
  695500  0.076428239 
  695600  0.065615201 
  695700  0.082657227 
  695800  0.044590213 
  695900  0.093283767 
  696000    0.1141757 
  696100  0.068577696 
  696200  0.084968014 
  696300  0.070059672 
  696400   0.04224394 
  696500  0.098395071 
  696600  0.084477323 
  696700  0.025733565 
  696800  0.065547723 
  696900  0.032102756 
  697000  0.041678904 
  697100  0.095562366 
  697200  0.051748288 
  697300  0.041154203 
  697400  0.064804732 
  697500  0.065242347 
  697600  0.088943567 
  697700   0.11161774 
  697800  0.069893384 
  697900  0.071864694 
  698000  0.080493389 
  698100  0.093209716 
  698200   0.10256179 
  698300  0.072385521 
  698400  0.059623481 
  698500  0.038662128 
  698600  0.062808607 
  698700  0.074190919 
  698800  0.055794904 
  698900   0.03949452 
  699000  0.032164194 
  699100  0.041181189 
  699200  0.077680723 
  699300  0.083434186 
  699400  0.057189613 
  699500  0.072944228 
  699600  0.052825729 
  699700  0.098157793 
  699800   0.12085197 
  699900  0.076254462 
  700000  0.084637005 
  700100  0.068226304 
  700200  0.058757868 
  700300   0.10745875 
  700400  0.087679778 
  700500  0.025787238 
  700600  0.063731324 
  700700  0.032075092 
  700800  0.046384509 
  700900   0.10225153 
  701000  0.036703981 
  701100  0.032128498 
  701200  0.062902098 
  701300  0.059474706 
  701400  0.088041362 
  701500   0.11070993 
  701600  0.050845176 
  701700  0.064852809 
  701800  0.089467611 
  701900  0.089080598 
  702000   0.10817193 
  702100  0.070501541 
  702200   0.05266259 
  702300  0.047095032 
  702400  0.077258602 
  702500  0.081230593 
  702600  0.059377781 
  702700  0.039328575 
  702800  0.035620438 
  702900  0.053885681 
  703000  0.083487519 
  703100  0.088348025 
  703200  0.046898643 
  703300  0.065648445 
  703400  0.059145648 
  703500  0.095969997 
  703600   0.11548264 
  703700  0.068305484 
  703800  0.067393008 
  703900  0.060798636 
  704000  0.066778157 
  704100   0.10094452 
  704200   0.08001582 
  704300  0.020588274 
  704400  0.058965323 
  704500  0.039636505 
  704600  0.059100715 
  704700   0.10669603 
  704800  0.031598379 
  704900   0.03837344 
  705000  0.075481969 
  705100  0.069462397 
  705200  0.099097122 
  705300   0.11277056 
  705400  0.040295019 
  705500  0.071064256 
  705600   0.10106555 
  705700  0.082280611 
  705800     0.106131 
  705900    0.0592719 
  706000  0.036009846 
  706100  0.051841559 
  706200  0.078099118 
  706300  0.067676383 
  706400  0.050461494 
  706500  0.029779632 
  706600  0.032642845 
  706700  0.064344388 
  706800  0.085281954 
  706900  0.084798837 
  707000  0.044134603 
  707100  0.070447763 
  707200  0.076105573 
  707300   0.10486546 
  707400   0.11942312 
  707500  0.070079285 
  707600  0.065156999 
  707700  0.072477028 
  707800  0.080919347 
  707900  0.095824143 
  708000  0.073734663 
  708100  0.016884469 
  708200  0.052062581 
  708300  0.045785448 
  708400  0.058749739 
  708500  0.090649972 
  708600   0.01874235 
  708700  0.034757771 
  708800  0.076090122 
  708900  0.068817289 
  709000  0.097441522 
  709100    0.1017574 
  709200  0.033758179 
  709300  0.082584918 
  709400   0.11219312 
  709500  0.080508425 
  709600   0.11034845 
  709700   0.05969363 
  709800  0.036631549 
  709900  0.075036034 
  710000  0.084622633 
  710100  0.061461464 
  710200   0.05360207 
  710300  0.029564966 
  710400  0.035494553 
  710500  0.075918812 
  710600  0.078235197 
  710700  0.069633434 
  710800  0.040870872 
  710900  0.065922373 
  711000  0.078799749 
  711100  0.098680855 
  711200   0.10678803 
  711300  0.059643951 
  711400  0.060547469 
  711500  0.079745119 
  711600  0.084304545 
  711700  0.088337366 
  711800  0.070561312 
  711900  0.022795009 
  712000  0.056680225 
  712100  0.064305935 
  712200  0.063419458 
  712300  0.085126615 
  712400  0.026289426 
  712500  0.044436814 
  712600   0.08541029 
  712700  0.074168052 
  712800  0.095352705 
  712900  0.090147212 
  713000   0.03498196 
  713100  0.087186355 
  713200   0.10890626 
  713300  0.067525933 
  713400   0.10052265 
  713500  0.049444996 
  713600   0.03030824 
  713700  0.084732892 
  713800  0.072650024 
  713900  0.049455998 
  714000  0.055768594 
  714100  0.030464601 
  714200  0.041448378 
  714300  0.090621421 
  714400  0.073506858 
  714500  0.067311192 
  714600  0.058371147 
  714700  0.072185131 
  714800   0.09159054 
  714900   0.10286526 
  715000   0.10221975 
  715100  0.060206019 
  715200  0.067810622 
  715300  0.083628549 
  715400  0.079838996 
  715500  0.077385271 
  715600  0.060634969 
  715700  0.021558173 
  715800  0.050507887 
  715900  0.065695528 
  716000  0.049205827 
  716100  0.071660608 
  716200  0.028923484 
  716300  0.045141139 
  716400  0.087016651 
  716500  0.075977331 
  716600  0.092113844 
  716700  0.087892978 
  716800  0.051266151 
  716900  0.095652812 
  717000   0.11368498 
  717100  0.069596427 
  717200   0.10386066 
  717300  0.054997218 
  717400  0.038423715 
  717500  0.094890773 
  717600  0.062192824 
  717700  0.045487286 
  717800  0.058422557 
  717900  0.027194962 
  718000  0.038811193 
  718100  0.090497483 
  718200   0.05456416 
  718300  0.059353011 
  718400  0.065554582 
  718500  0.061160244 
  718600  0.091179106 
  718700  0.098523469 
  718800  0.092095712 
  718900  0.063924834 
  719000  0.078212538 
  719100  0.083170669 
  719200  0.082090292 
  719300  0.080511447 
  719400  0.063863172 
  719500  0.035129559 
  719600  0.056740806 
  719700  0.072717549 
  719800  0.046613834 
  719900  0.073775274 
  720000  0.038042114 
  720100  0.045884045 
  720200  0.085071934 
  720300  0.072759633 
  720400  0.082312097 
  720500  0.082363165 
  720600   0.05552737 
  720700  0.083842386 
  720800   0.10484899 
  720900    0.0628529 
  721000  0.096505718 
  721100  0.054354153 
  721200  0.039840756 
  721300  0.093088095 
  721400  0.055774642 
  721500  0.051359466 
  721600  0.066840984 
  721700  0.032378609 
  721800  0.046333453 
  721900  0.098805082 
  722000  0.052586492 
  722100  0.070962915 
  722200   0.07989089 
  722300  0.055423297 
  722400  0.096730313 
  722500  0.099113881 
  722600  0.083380514 
  722700   0.06856097 
  722800  0.077497578 
  722900  0.066877897 
  723000  0.077448175 
  723100   0.07442434 
  723200  0.053531626 
  723300  0.035802174 
  723400  0.048975593 
  723500   0.06504811 
  723600  0.044588665 
  723700  0.075977319 
  723800  0.043122975 
  723900  0.047665312 
  724000  0.088275358 
  724100   0.07935595 
  724200  0.087483765 
  724300  0.093012953 
  724400  0.066494783 
  724500  0.081783442 
  724600   0.11028671 
  724700  0.069534321 
  724800   0.09551196 
  724900  0.058232591 
  7250